ITEM: TIMESTEP
1.31942
ITEM: NUMBER OF ATOMS
1200
ITEM: BOX BOUNDS
0	40
0	40
0	40
ITEM: ATOMS index type x y z
     1	 10.3266	 19.2362	 32.7167	  0.2441	-3.77717	 2.67897
     2	 9.80271	 18.4188	 33.7295	-1.00655	-3.87756	 2.73192
     3	 9.36134	 17.0749	 33.4329	0.170272	-1.55526	-1.35444
     4	 9.07631	 16.7867	 32.0715	-2.28057	-0.338058	 1.65515
     5	 9.50525	 17.6662	  31.018	0.0763554	0.391244	 4.19949
     6	 9.98736	 18.8828	 31.3542	0.0263464	 1.23826	-0.220529
     7	  9.0669	 18.8683	 34.3449	 7.43279	 4.19863	 1.03577
     8	 9.64902	 19.6691	 30.7345	0.352006	-12.4377	-0.176009
     9	 10.1129	  16.369	 33.8418	-2.16504	 6.33639	 3.74121
    10	  9.9551	  17.057	 30.2103	 8.61164	 4.28966	-3.45146
    11	 8.10159	 16.4042	 31.9186	-7.61177	-2.96029	  4.9428
    12	 11.0737	 19.9643	 32.8949	-11.3709	-6.22702	-0.833501
    13	 39.1546	 33.3391	 33.3317	-1.31717	  -2.917	0.449126
    14	 39.9209	 34.3902	 33.9416	 1.76275	0.0402223	0.685606
    15	 39.5859	 35.7295	 33.6992	 2.32601	 2.66145	-1.65831
    16	 38.2366	 35.9873	 33.2698	 1.06314	 2.27237	0.894413
    17	 37.5222	 34.9411	 32.5926	 2.91089	-1.01758	0.596874
    18	 37.9168	 33.6184	 32.6353	-1.91761	-0.163859	-1.37694
    19	0.126219	 34.2256	 35.0131	 4.11128	-3.87747	 1.03311
    20	  37.715	  32.929	 31.7888	-12.4765	-13.3799	0.907357
    21	 0.31226	 36.1829	 33.0657	-10.1616	 3.49275	-1.69563
    22	 36.5122	 35.1921	 32.3793	 2.52897	 11.0887	0.917779
    23	 37.7001	 36.3507	 34.1288	 1.33608	-3.66454	0.756429
    24	 39.7959	 32.5881	  32.952	-3.84174	 0.20384	 -5.5391
    25	 39.6428	 22.1211	 38.1289	-0.88699	 -3.2594	0.610691
    26	 38.2262	 21.9584	  38.037	 1.13637	-1.06241	 3.22588
    27	 37.4051	 23.0733	 38.2909	-3.14041	-3.95904	-0.363366
    28	 37.9848	 24.2711	 38.8423	0.877877	  1.8553	-0.111803
    29	  39.343	 24.1898	 39.3243	-0.832635	-1.01304	 4.16012
    30	0.0870451	 22.9572	 39.1897	0.865556	0.840094	 -1.1306
    31	 37.9348	  21.163	 38.7801	 8.75728	  8.4297	-9.17976
    32	0.188085	 22.4436	0.137789	-2.51872	-8.56801	-4.67024
    33	 36.5232	 23.1646	 37.7196	-0.74186	-7.81464	  8.1298
    34	 39.2358	 24.3467	0.436717	 1.19733	-1.74592	 5.53342
    35	 38.0172	 25.1223	  38.113	 5.21804	-4.96918	 3.23265
    36	0.0958604	 22.4385	 37.1537	 1.00572	 2.77312	 -1.2179
    37	 21.6341	  36.797	 38.1838	-1.36372	-2.66677	-1.33189
    38	  22.626	  37.199	 37.2058	  2.1475	 2.41129	0.648485
    39	 22.3822	  37.016	 35.8268	-5.05431	-4.39836	-2.21556
    40	 21.0368	 36.7616	   35.44	0.164585	0.0939909	  4.6401
    41	 20.0055	  36.636	 36.3722	-1.30994	-3.25539	-2.30808
    42	 20.3705	 36.4134	 37.7455	-2.50403	-0.0223875	0.160131
    43	 22.8245	 38.2307	 37.3956	  7.9661	 6.24963	 11.2515
    44	 20.1048	 35.3697	 37.9858	-1.08595	 1.01251	-1.44572
    45	 23.1505	 36.5202	 35.2369	0.0700192	 -4.6338	 2.58297
    46	 19.2806	 37.4909	 36.2466	-5.10344	 5.21693	0.762338
    47	 20.9866	 35.9619	 34.7037	  7.0838	 -1.6721	 7.60637
    48	 21.5962	 37.5298	 38.9598	-0.207533	 7.23949	 8.48457
    49	 32.9084	 22.5893	 37.4611	-1.71967	-1.04732	 3.72728
    50	   32.76	 21.8476	 36.2662	-3.19866	-1.36175	 1.03701
    51	  31.734	 22.1402	 35.2955	-0.493852	 3.03542	 3.29107
    52	 30.6574	 22.9629	 35.6863	 1.74817	0.285937	 2.80293
    53	 30.8435	 23.8602	  36.808	-2.53845	-1.75935	 0.60599
    54	 31.7901	  23.464	 37.7664	-2.50888	-2.52554	0.988977
    55	 33.2559	 20.9141	 36.2039	-11.0721	 3.37722	 3.10968
    56	 31.2198	  23.071	 38.6318	  -9.278	 9.96473	-2.68972
    57	 32.0841	  22.247	 34.2538	 -9.0762	0.893683	 3.03246
    58	  30.696	 24.9164	 36.6351	-5.13299	 7.96108	-9.34598
    59	 29.7167	 22.4977	 35.6665	0.769813	 6.66744	-0.272928
    60	  33.828	 23.0698	 37.6388	-8.01333	 5.56389	-9.61432
    61	 27.7316	 27.9292	 22.9262	-1.03174	-2.26804	-0.29046
    62	 26.3725	 28.3756	 22.7641	-0.643382	 1.53998	-1.08922
    63	 25.7955	 28.2676	 21.4399	-1.99634	-0.503138	-0.699102
    64	  26.394	 27.3156	 20.5427	-0.171082	-1.75386	 1.67072
    65	 27.7211	 26.8962	 20.7221	 1.06005	 2.31328	0.762332
    66	 28.4342	 27.3547	 21.9009	0.416542	-0.772542	0.571648
    67	 25.7065	 27.8353	 23.4951	0.553305	-7.55578	 4.86427
    68	 29.4851	 27.2581	 21.8439	 1.88277	 4.41163	 13.1853
    69	 25.5474	 29.2501	 21.0014	-5.30497	-0.624824	0.0761882
    70	 28.3306	 26.6861	  19.845	 11.7541	-1.86648	 4.12725
    71	 25.7512	 26.4787	 20.4353	-4.08961	-2.31764	 6.40659
    72	 28.0357	 27.7984	 23.9844	-0.76164	-14.1334	 12.8304
    73	  4.0195	 26.8869	 13.2309	-1.17187	 5.41207	-0.559084
    74	 3.36715	  25.596	 13.1134	-4.65837	-0.623717	0.887235
    75	 4.11788	 24.4184	 12.8828	 -2.8346	-3.70552	-2.58387
    76	 5.52152	 24.4705	 13.1503	-2.12774	-3.78093	 4.33568
    77	 6.15139	 25.6533	 13.6761	-3.09662	-1.92451	 3.20114
    78	 5.43821	 26.8536	 13.4979	 2.03495	-2.65984	-1.80472
    79	 2.65792	 25.5415	 13.8847	 22.8174	-5.85982	 1.65502
    80	 5.89424	 27.8067	 13.7662	-8.68451	-0.200106	 3.80666
    81	 3.83013	 23.9362	 11.9664	-13.6286	-4.19634	-7.54687
    82	 6.40441	 25.3946	 14.7318	-7.22744	-11.3108	  10.841
    83	  6.0465	 23.8971	  12.411	-0.815412	-2.95476	 5.26793
    84	 3.72668	 27.4072	 12.2736	 3.52807	 4.92967	0.307771
    85	  17.086	 26.6848	 35.2123	-1.87956	 3.55603	-1.11261
    86	 17.3042	  27.999	 34.7317	-0.663399	-3.31991	-2.56979
    87	 16.5695	 28.5275	  33.597	-0.416365	-1.40247	0.309956
    88	 15.3626	 27.8544	 33.2356	-3.40786	-2.73879	 2.67346
    89	 15.1775	 26.5258	 33.6566	-0.29092	-0.500326	 4.86197
    90	 15.7933	 26.1503	    34.9	-2.07921	-0.714423	 1.08236
    91	 17.2627	 28.6761	 35.5696	0.108523	-9.65943	-3.66846
    92	 15.1575	 26.2063	 35.7564	-0.325256	-3.87387	-0.055134
    93	 17.1905	 28.8128	 32.7667	-8.03804	-3.33227	-1.66641
    94	 15.1113	 25.7574	  32.906	 0.18951	-10.8166	-0.492368
    95	 14.4447	 28.4097	  33.134	-9.93124	 5.89206	-3.11382
    96	 17.8005	 25.9141	 35.0003	-12.6069	0.851431	-2.05215
    97	 19.5552	 34.2898	  21.391	-2.91646	-4.60793	-1.73775
    98	 19.8251	 33.1767	 20.5192	-1.18501	-3.69275	-0.411173
    99	 18.7573	 32.8516	 19.5985	-0.337743	0.652984	 2.23307
   100	 17.8801	 33.8805	  19.115	-4.61824	0.653174	  1.0489
   101	 17.5106	 34.7595	 20.1527	-3.37968	   1.162	-0.26463
   102	  18.458	  35.169	 21.1629	-0.545707	 1.12858	0.547352
   103	 20.7913	 33.1792	 20.0013	 1.74914	-2.78006	-2.34443
   104	 18.8022	 36.1538	 20.9211	-0.96718	-4.07586	-3.25366
   105	 18.1863	 32.0295	 19.9308	  1.7128	-5.23822	 8.06189
   106	 16.5023	 35.1249	 20.2373	-4.45475	-4.05557	  1.8648
   107	 18.1794	 34.2198	 18.1674	-2.11237	 2.43068	  11.771
   108	 19.7664	 34.1106	 22.4681	 2.68901	 5.93266	 11.6657
   109	 24.1709	   28.72	 3.23465	 1.19145	-0.497245	0.265694
   110	 24.5999	 30.0771	 3.06665	0.937127	 2.19092	 4.17643
   111	 24.3021	 30.9875	 4.04859	0.763402	0.849612	-0.136777
   112	 23.1568	 30.7426	 4.90498	-2.44348	-0.0689103	-2.14115
   113	 22.8786	 29.4523	 5.19273	 1.76491	  1.2841	0.991779
   114	 23.2464	 28.3757	 4.29331	-1.35327	0.152623	0.293354
   115	 25.0542	 30.3051	 2.12557	 6.69278	-5.62725	 5.42032
   116	 23.5083	 27.4547	 4.74532	 1.41652	-1.57802	0.00651016
   117	  25.155	 31.2087	 4.66993	-7.00288	-3.45547	-3.40202
   118	 22.6721	 29.0789	 6.18415	-10.1651	 1.34893	  1.0839
   119	 22.4338	 31.5284	 4.84339	 4.19211	 -5.5766	 4.65982
   120	 24.9192	 27.9344	 3.22744	 5.99745	 2.11331	-13.0121
   121	  19.326	0.421599	 9.36667	0.349207	0.503466	0.876513
   122	 20.2609	 39.3884	 9.51465	-4.23233	0.402492	-1.40682
   123	 20.3042	 38.5591	 10.7049	-0.889844	-0.692727	 1.15271
   124	 19.3403	 38.8028	 11.6834	 1.28779	-0.466224	 3.56947
   125	 18.1772	 39.5555	 11.3984	-1.37398	-3.83866	-0.612974
   126	 18.1705	0.317988	 10.2042	 1.82626	-0.175668	 2.44894
   127	 20.4758	 38.8559	 8.60501	-7.51061	-1.55694	-8.77271
   128	 17.3172	0.199891	 9.55567	 2.99595	-9.56626	 4.63653
   129	 20.6204	 37.5499	 10.5587	-2.84758	-9.11032	-7.38015
   130	 17.6702	 39.8965	 12.2673	-5.18391	-7.92253	-4.31191
   131	 19.6255	 38.7902	 12.7189	-5.22264	 6.61075	-2.24739
   132	 19.8293	 1.41447	 9.34198	-11.7717	-8.34758	 4.41608
   133	 15.5468	 22.0288	 30.7187	0.234479	0.715026	0.525499
   134	 16.6848	 21.7686	 29.9454	 -1.1846	 -3.5305	 0.88127
   135	 16.8558	 20.4357	 29.4735	0.639051	-1.88668	  5.2074
   136	 16.1824	 19.3693	  30.102	-1.24636	0.464629	 1.83549
   137	 15.1308	 19.6739	 31.0526	-6.28903	-1.76952	0.958474
   138	 15.0621	 20.9657	 31.5571	 1.56073	-2.11432	 1.64326
   139	 17.6239	 22.2139	 30.2241	 2.99611	 7.89719	0.743346
   140	 15.0804	 21.2092	 32.5925	 1.57103	 5.61818	-9.90512
   141	 17.2948	 20.2806	 28.5046	-0.150559	 4.54149	-1.72698
   142	 14.1999	 19.2398	 30.7923	-7.87552	 1.56009	 3.92293
   143	 16.7845	  18.547	 30.4168	 2.49634	 1.61042	 4.18324
   144	 14.7598	 22.6658	 30.4137	-5.19848	-0.266228	 3.31382
   145	 15.5026	 28.3228	 20.1612	 2.23249	-0.0578961	 3.58211
   146	 15.0571	 27.7747	 18.9105	-1.29644	0.194082	 0.82182
   147	 14.7076	 28.7298	 17.9244	-1.35812	-0.521126	-1.96589
   148	   14.04	 29.9316	  18.372	 2.47306	-2.31304	-0.481389
   149	 14.1377	 30.2905	 19.7444	-1.63823	-2.40172	 6.41871
   150	 14.8715	 29.4935	 20.6552	-2.08732	-0.77607	-1.73655
   151	 14.3771	 26.9743	 19.0677	 7.95373	  2.2675	 10.1854
   152	 14.2935	 29.3808	 21.6086	-6.62198	-8.96654	-4.57856
   153	 15.4933	 28.9809	 17.2287	-2.32296	-10.4945	 3.00449
   154	 14.3543	 31.3902	 19.7509	-0.092791	 3.94441	-0.0428902
   155	 13.0742	 30.0133	  17.922	-7.71988	-11.1217	-2.24451
   156	 16.5695	 28.3248	  20.209	  3.8907	-4.13086	 1.67049
   157	 37.7416	 28.0158	 9.45596	 -2.1321	 2.35657	 1.33163
   158	 37.4277	 27.2131	 8.32851	-0.856599	0.125722	 2.80282
   159	 38.4025	 26.2965	 7.97157	-1.48181	 1.16098	 1.92686
   160	 39.5047	   25.93	 8.83832	0.0371155	-1.08469	-1.35216
   161	 39.5333	 26.5486	 10.1107	-0.894292	0.0381948	 0.92316
   162	 38.6361	 27.5819	  10.458	-2.48322	-1.34471	 2.09627
   163	  36.459	 26.6734	 8.45651	-5.45194	-12.1856	-9.52616
   164	 38.2319	 27.5881	 11.4868	 15.3498	-6.00633	-2.14411
   165	 38.6679	 26.4717	 6.90731	0.0507341	0.0133931	-4.39837
   166	 39.6703	 25.9104	 10.9499	 4.97804	 8.77389	-10.6816
   167	0.423819	 25.8096	 8.27971	 8.36671	 3.82048	  11.613
   168	  37.843	 29.0978	 9.27332	 4.84275	 2.07235	 7.30931
   169	 13.4129	 34.1763	 33.6237	-0.88696	-2.61974	 1.82181
   170	 13.8616	 33.0979	 32.7603	0.611377	-0.220748	0.582753
   171	   12.74	 32.2757	 32.4014	-0.723861	-1.98654	-0.175155
   172	  11.607	 32.3066	  33.293	-4.53978	-2.32431	 1.16204
   173	 11.7297	 32.8856	 34.6114	-1.02606	 3.41217	-0.507268
   174	 12.8915	 33.7233	 34.8051	-0.821156	-1.24634	 1.21602
   175	 14.7394	 32.6079	 33.1633	 7.82664	 5.83864	 1.55176
   176	 12.6915	 34.4495	 35.6316	 4.93735	 3.99914	 6.61591
   177	 12.9415	  31.309	 32.0176	 4.00393	-2.07597	-14.4439
   178	 11.7468	 32.0304	 35.2938	-0.344145	-3.07857	-0.998949
   179	   10.75	 32.6813	 32.7483	-9.79862	 -6.9774	-2.56464
   180	 12.9312	 35.0096	 33.0493	   3.183	-10.4268	 -2.6476
   181	 23.2326	 5.49411	 34.6922	-2.67435	0.346802	-0.471896
   182	 23.2597	 6.77812	 35.1814	-1.50088	0.547698	-0.136555
   183	 22.8623	 7.05669	 36.5233	-2.36614	-1.31989	0.854997
   184	 22.5753	 5.98093	 37.4242	-1.45312	-4.50005	-0.569591
   185	 22.3929	  4.6605	 36.8627	-5.14007	-0.019725	 2.55533
   186	 22.6571	  4.4121	 35.4608	-1.00253	-1.45824	-0.122707
   187	 24.2206	 7.25819	 34.9676	 1.16204	-5.03504	 -3.2616
   188	 21.9376	  3.8281	 34.9556	 2.94432	-14.3029	-6.79656
   189	 22.1721	 7.83329	 36.6861	-0.395118	-0.806076	 2.16137
   190	 21.5302	 4.16857	 37.2062	-5.23287	-12.7406	 6.01737
   191	    23.2	 5.95483	 38.3543	-7.64256	 4.44482	 4.59754
   192	 24.1315	 5.09937	 34.2289	0.182125	-1.59707	 1.24634
   193	 29.0403	 29.8123	 39.5459	 -1.6897	-1.43016	 3.21552
   194	 27.9169	 29.7867	 38.6474	0.155591	-1.67988	  1.4484
   195	 27.6009	 31.0111	 37.9975	-2.17413	-4.16926	-4.60542
   196	 28.2177	 32.2646	 38.3726	-3.35329	 4.88384	 1.69399
   197	 29.4796	 32.0813	 39.0655	 2.36526	 1.57625	 1.26886
   198	 29.7418	 30.9846	 39.8719	-3.53178	 1.86876	 1.56994
   199	 27.0048	 29.3539	 39.1362	 -3.5699	-3.38052	-1.25097
   200	 30.8573	 30.8005	 39.8608	-9.95441	 -5.8243	  3.6307
   201	 27.3853	 30.9302	  36.958	 10.6199	-5.43859	0.884681
   202	 30.3063	 32.4394	 38.3993	 4.93907	 6.07843	 4.12514
   203	 27.5449	 32.8811	 38.9914	-2.43302	-4.00719	-1.94414
   204	 28.8513	 29.1188	0.372848	0.986478	 10.5364	 1.52936
   205	  25.457	 7.81367	0.182851	-3.05834	 1.91723	  3.3762
   206	 26.2474	 8.97582	0.371242	-3.78796	 2.61739	 2.14052
   207	 25.5778	 10.2367	0.128056	-0.967617	-0.875389	-0.591974
   208	 24.1582	 10.2954	0.186294	-2.23804	-2.04547	 1.87845
   209	 23.4061	 9.16186	0.611583	-0.895396	0.685788	0.188059
   210	 24.0811	 7.89991	0.614144	 -1.6421	-1.71597	-1.20676
   211	 26.6699	 9.06838	 1.38021	 10.7629	-4.72258	 1.11473
   212	 23.9329	 7.36275	 1.55994	-1.99118	 1.14061	 4.43252
   213	 26.0249	 11.1047	0.651416	-8.80208	-8.31404	-1.47365
   214	 22.4644	 9.09676	0.122277	-0.806019	-9.25932	 5.75743
   215	 23.6835	 10.7604	 39.3348	-3.49721	 6.90297	 4.63451
   216	 25.3937	 7.65165	 39.0923	 -10.904	-17.3441	-0.431629
   217	 16.3317	  5.8832	 3.87005	 -1.5157	-0.839112	  1.6565
   218	 15.3358	 5.55533	 4.85223	-1.16518	  3.4948	 2.35073
   219	 14.6069	 6.69701	 5.34562	-0.12856	-1.89871	 1.00578
   220	 15.3247	 7.92009	 5.51039	-3.83029	0.0357295	 4.07111
   221	  16.469	 8.14835	 4.68193	-3.60974	-0.037399	 2.17443
   222	 16.9383	 7.16704	 3.80333	 -1.1854	0.339543	0.520916
   223	  15.736	 5.02344	 5.70702	-8.30354	-5.95917	 10.4736
   224	 16.8791	 7.61019	 2.77019	 3.81293	 7.07624	-2.40926
   225	 13.5985	 6.71503	 5.00893	 4.77203	-8.95605	-1.25305
   226	 17.2744	  8.7193	 5.23144	 7.59115	-3.97545	-2.74491
   227	 15.5207	 8.05547	 6.57498	 12.3888	 1.84345	 5.83163
   228	 17.0833	 5.12184	 3.90207	-9.10457	  9.5744	 1.43238
   229	 2.02914	 22.4761	 20.8145	-2.51426	-4.42614	 4.36685
   230	 1.02869	 21.4922	 20.6728	 -2.0749	0.271813	0.269948
   231	0.0640834	 21.6723	 19.6202	-2.09649	 2.10588	 2.50766
   232	0.430145	 22.4191	 18.4831	-1.45346	-0.439357	0.894911
   233	 1.35844	 23.4818	 18.7076	0.786967	-0.454073	-0.945518
   234	 2.33216	 23.3309	 19.7722	-0.741108	 1.30702	0.975356
   235	 1.50643	 20.5059	  20.629	-2.32708	-3.01626	-0.131047
   236	 3.38305	 23.4616	 19.5093	 8.48709	-6.51634	-2.84706
   237	 39.0328	 21.6997	 19.9542	  3.9531	0.0397971	 7.60596
   238	0.886377	 24.4618	 18.6131	-6.15826	 3.41883	 1.01432
   239	0.660849	 21.9182	 17.5899	 1.07933	-15.8934	-7.95022
   240	 1.97062	 23.0156	 21.7448	-12.3793	0.796357	-5.59493
   241	0.799755	 14.5752	  31.269	 0.21001	-1.30159	 2.71134
   242	0.784517	 13.4397	 32.0074	-0.55623	 1.19384	-0.11068
   243	0.761168	  13.585	 33.4418	-1.37508	0.0459006	  4.5723
   244	0.413501	 14.8675	 34.0282	-2.22294	-0.772382	 2.71545
   245	0.724475	 15.9955	 33.1928	-1.13943	-2.52347	 3.69051
   246	0.527493	 15.8739	 31.8267	 1.15096	0.345003	 1.64661
   247	0.476003	 12.4688	 31.7101	-6.37361	 2.92443	-0.232305
   248	 39.6431	 16.2437	 31.3469	-2.54937	-6.39075	-9.55094
   249	 1.71621	 13.3223	 33.9639	 5.96958	-5.76457	  7.3789
   250	 1.73996	 16.4162	 33.3976	-9.84605	-12.8032	 7.84247
   251	 39.4341	 14.9212	 34.4271	-5.41149	-1.54848	 5.75283
   252	 1.57834	 14.6273	 30.4827	 -6.2917	 3.06993	-0.300194
   253	 22.7824	 14.8195	 12.5242	 -1.4263	 1.45002	0.593965
   254	 22.0876	 15.9776	 13.0487	 1.19811	-3.42357	0.612068
   255	 22.7633	 16.7762	  13.955	-2.95983	-4.32423	 1.35898
   256	 24.1143	 16.5187	 14.3685	-4.69587	0.462673	-0.30675
   257	 24.5828	  15.191	 14.0924	 2.60571	-2.02757	 1.59738
   258	  24.007	 14.4129	  13.096	 1.04328	-0.170645	 2.67292
   259	 21.1406	 15.6605	 13.4455	-8.80746	-15.4541	0.727126
   260	 24.6358	 13.9717	 12.2886	 -1.8509	-0.443708	-1.53068
   261	  22.122	  16.934	 14.8564	 10.3162	0.463749	-0.99227
   262	 24.8903	 14.5823	  14.977	 12.0787	-1.52792	-0.744786
   263	 24.7928	 17.3071	 14.0334	 3.29722	 4.19946	 2.17843
   264	 22.8119	 14.8886	 11.4486	-4.50692	 1.08533	-1.88228
   265	 10.2132	 11.2502	 25.2297	-0.536158	-0.249156	 1.86873
   266	 11.1266	 11.0159	 24.1505	 1.10794	-4.80192	-1.07929
   267	 11.0585	 11.9817	 23.0821	0.161084	 1.69931	 1.76276
   268	 10.4915	 13.2824	 23.2987	-1.57087	-3.72295	  1.5495
   269	  9.7419	 13.4635	 24.5091	-0.626609	 0.17828	0.308903
   270	 9.83144	 12.5295	 25.6052	 2.93328	 1.27144	 2.62894
   271	 12.1019	 10.7016	  24.407	-3.55546	-7.49064	 8.19927
   272	  10.311	 13.0284	 26.4837	 1.92847	-1.60161	-3.27866
   273	 10.7689	 11.5857	  22.117	 1.61786	 2.35534	 -5.4669
   274	 8.75299	 13.8117	 24.4248	 2.50953	-5.05985	 8.29359
   275	 11.3404	 14.0121	 23.1504	 -1.4238	 4.17103	-4.40553
   276	 9.41181	 10.5481	 25.2995	-16.3361	0.750312	 6.50077
   277	 1.35036	 36.2876	 18.5938	-1.46163	 1.19879	-1.36672
   278	  1.0396	 34.9757	 18.1095	-4.51282	0.664781	-1.58823
   279	0.707343	 33.9104	 18.9711	-0.926423	-3.47693	 -1.2571
   280	 1.10384	 34.0011	 20.3079	-2.06502	 0.19708	0.822531
   281	  1.6575	 35.2155	 20.8307	-0.33153	-2.77953	 3.01907
   282	 1.57331	 36.3894	 20.0187	-6.89811	-1.51204	0.343154
   283	 1.91867	 34.6318	 17.5046	 15.1572	  3.9683	 7.34482
   284	0.873691	 37.1523	 20.4599	 9.10326	-8.83064	 3.69157
   285	 39.7408	 33.4962	 18.6913	 5.08907	 4.38309	  4.1721
   286	 1.21975	 35.4534	 21.8275	-0.936541	-1.26552	-5.82129
   287	  1.4866	 33.0602	 20.7015	-12.7221	  6.9244	-8.24945
   288	 2.27527	 36.5963	 18.0793	 3.04204	-0.396783	 -4.2573
   289	 20.0428	 1.77702	  28.779	 -1.4587	-1.47125	 1.29286
   290	 20.6073	 1.92575	 27.5214	0.168966	-2.27755	0.0124147
   291	 21.0367	 3.24164	 27.1197	 -4.4548	-1.18387	-1.13146
   292	 20.6109	 4.37514	 27.9032	-1.44541	 1.31391	 2.58153
   293	 20.1952	 4.19137	 29.2596	-0.928124	-1.36452	-0.848603
   294	 19.9493	  2.8413	 29.7052	0.201734	0.746542	-0.281331
   295	 20.2572	  1.2844	 26.6924	 -1.0905	 -3.0007	 3.13848
   296	 20.6561	 2.69788	 30.5425	-6.10212	-4.69536	  7.4982
   297	 21.9295	 3.28579	 26.5587	-14.0839	 5.17311	 6.18345
   298	 19.3497	 4.78822	 29.4859	 4.55381	 8.57004	 8.49154
   299	 20.1378	 5.18218	 27.3913	-6.00409	 2.31164	 1.74053
   300	 20.3001	0.832223	 29.2887	-5.69144	-2.35267	-3.09846
   301	 19.1181	 34.6654	 7.99933	-1.15657	-0.258588	-1.62238
   302	 18.8714	 33.7655	 9.09224	 1.53349	-1.77923	0.458411
   303	  17.568	 33.6805	 9.50848	-0.935702	 -1.7487	0.357436
   304	 16.4889	 34.4497	 8.94343	-6.20185	-3.54529	 3.03498
   305	 16.8055	 35.2289	 7.87082	-1.20352	-0.951451	-2.30242
   306	 18.1141	 35.4267	 7.38323	 -2.1156	 1.40791	0.271827
   307	  19.379	 32.8082	 9.00417	 3.58586	 7.22523	-5.24985
   308	 18.1977	 35.6523	 6.33416	 -7.6076	-4.83695	 5.17909
   309	 17.2282	 32.7045	 9.72079	-4.96123	-4.84435	 2.80755
   310	  16.019	 35.5445	  7.1763	 2.02245	 0.17576	 9.38311
   311	 16.0118	 35.0643	 9.75008	-0.0571786	-6.61383	0.520321
   312	 19.9228	 35.3779	 8.29263	-5.47804	 2.43416	 14.1154
   313	 31.0373	 20.0666	  24.114	-2.62838	-0.0284616	-1.65407
   314	 30.2562	 18.8915	 23.7732	-2.64059	-0.512885	 1.17854
   315	 30.7862	 17.8721	 22.9441	  1.8922	 1.00351	 1.19264
   316	 31.7455	 18.2975	 22.0431	-0.469396	-1.63687	-1.18987
   317	 32.6009	 19.4015	 22.3072	-2.26365	-4.36687	 1.71605
   318	 31.9336	 20.4329	  23.052	-3.28669	0.130031	0.475247
   319	 29.2532	 19.1904	  23.465	0.848605	-14.1735	-3.44883
   320	 31.3688	 21.0876	 22.3758	-4.38208	-3.95934	-1.04946
   321	 30.8991	 16.8973	 23.4539	-6.85658	-0.684517	  7.4199
   322	 33.4369	 19.0841	 22.9131	 8.84435	-0.563486	-7.94349
   323	 31.3701	 18.3257	 21.0385	 -0.5543	  9.5997	 2.63215
   324	 31.6701	 19.9438	 25.0395	0.730962	 7.09587	-2.87603
   325	 2.60476	 4.03362	 1.86466	-0.0438439	0.0305521	 1.32836
   326	 3.96408	  4.2655	 1.59896	-3.68404	-0.172528	 1.20801
   327	 4.83619	 3.15783	 1.37293	-1.75524	0.334585	 2.67985
   328	 4.27159	 1.93939	0.869597	-2.45241	-1.03807	-0.824376
   329	 2.85411	  1.7638	0.966393	-3.80194	-2.80006	 2.97639
   330	 2.01206	  2.8203	 1.34702	-0.0106569	 2.09547	-1.10933
   331	 4.03528	 4.95258	0.734432	-1.00497	 4.95801	 10.4425
   332	 1.23573	 3.07449	0.655159	-16.1445	 1.64626	 1.89569
   333	 5.38121	 2.95473	 2.29788	-4.31735	-5.36289	-8.42659
   334	 2.47413	0.796434	 1.23416	 7.45222	 4.48709	 3.38871
   335	  4.5752	 1.66454	 39.9028	-4.20548	 5.91691	  1.2509
   336	 2.37002	 4.33442	 2.85303	 4.11447	0.222818	 3.55266
   337	 5.34817	  7.2514	 4.65042	-0.495573	 1.07177	0.945812
   338	 5.60528	 8.56775	  4.1572	0.855997	-3.44698	-2.45594
   339	 5.43544	 9.71444	 5.01176	-1.86198	 2.57929	-1.35785
   340	 5.53848	 9.44214	  6.3867	-3.67911	-3.49705	0.380235
   341	 5.47852	 8.12823	 6.93001	-4.44249	-2.75565	  2.1037
   342	 5.50713	 7.07115	 5.99023	 1.78575	0.155267	 1.14727
   343	 6.53593	 8.54091	 3.63688	-4.93564	-3.19896	 3.23006
   344	 5.59214	 6.12807	 6.49735	-4.18692	-2.50262	 7.36371
   345	 4.51914	 10.1745	 4.76971	-11.3053	 13.5424	-1.89005
   346	 6.38663	 8.04372	 7.58594	 4.99082	-6.50256	0.769783
   347	 5.06678	 10.2296	 7.03799	-9.13694	 1.11087	-1.61072
   348	 4.38053	 6.93764	 4.17646	 1.90416	 2.77181	 4.06667
   349	 33.6623	 23.6436	 27.0979	0.366364	-1.25127	0.561406
   350	 34.1998	 23.4211	 28.3675	 1.34297	-0.196466	  2.2143
   351	 35.3775	 22.6207	 28.5093	0.535096	 2.88213	 1.46294
   352	 35.5051	 21.5662	 27.5217	 -1.8695	-0.196201	 2.26051
   353	 34.9643	 21.7995	 26.2063	0.524947	-2.37517	0.435416
   354	  34.063	  22.809	 25.9853	-3.43925	0.0107764	 2.19934
   355	  33.421	 23.2777	 29.1274	 -5.9123	 1.47015	-9.97142
   356	 34.1943	 23.4406	 25.1456	-11.2156	-8.92268	-1.90704
   357	 36.2243	 23.2281	 28.6786	-9.93985	-12.9967	 8.66592
   358	 35.0514	  20.923	 25.6322	-2.59234	0.462626	 5.64851
   359	 35.1187	 20.5838	 27.8664	 3.82494	  3.1008	 3.89881
   360	 33.8048	 24.7103	 26.8397	-12.5563	 13.7324	 24.5022
   361	 13.0051	 15.1219	 2.05406	0.792716	 -4.1159	 4.37313
   362	 13.0607	  14.344	0.870542	-0.385255	0.318356	 2.09849
   363	 12.5603	 13.0023	0.931202	-2.70303	-2.73869	 2.52809
   364	 11.9924	 12.4845	 2.11431	-2.37468	  1.4898	 3.39999
   365	 12.1965	 13.2193	  3.2997	0.149595	 2.29029	 1.69926
   366	 12.8377	 14.5059	 3.32585	  2.1421	 1.18924	-0.231968
   367	 14.1362	 14.2761	0.548627	 1.84533	-9.18631	 4.93696
   368	 13.8363	 14.2947	 3.80689	-0.768501	 1.14156	0.0478752
   369	 13.0965	 12.2622	0.336774	-7.87758	 7.47785	 10.4753
   370	 12.6614	 12.5637	 4.05946	-14.1361	0.995888	-2.44734
   371	 10.9043	 12.3144	  1.9217	-2.61858	 5.48958	 9.73763
   372	 12.3143	 15.9884	 1.85813	 -1.0914	 2.08468	0.966487
   373	 37.3392	 32.0452	 3.60453	-2.14857	-2.35573	-3.78471
   374	 36.5928	 30.8267	 3.46178	-1.82186	 1.09578	 3.00426
   375	 35.5609	 30.9845	 2.46449	-3.48046	0.847784	-0.719903
   376	 35.8871	 31.6324	 1.23021	 1.49513	-0.323734	0.418357
   377	 36.6424	  32.799	 1.43707	0.771615	-1.40694	-0.155822
   378	 37.1091	 33.0973	 2.70523	 -1.8961	-4.61787	0.806637
   379	 37.2184	 29.9563	 3.21473	 4.85669	-2.82296	  -1.642
   380	 36.5125	 33.9245	 3.14989	-4.74304	-5.33748	  1.0226
   381	 34.6327	 31.3055	 2.92081	 3.65038	-2.81358	  11.465
   382	 37.4469	  32.981	0.681122	 9.35279	-0.720744	 1.19277
   383	 34.9786	 31.8287	0.612299	-0.114308	-0.725414	-5.28322
   384	 37.8907	 32.1733	 4.49325	-3.56653	 3.73973	  5.2321
   385	 26.8135	 32.3626	   16.98	  -1.097	-5.26857	 1.45743
   386	 25.3997	  32.151	 16.8611	 2.30419	-2.39648	 2.46588
   387	 24.8174	  30.879	 17.0784	-4.27883	-2.68769	 1.16417
   388	 25.6418	 29.8018	 17.3443	-1.27863	-1.58188	0.811387
   389	 27.0782	 29.9733	 17.4304	 1.17801	 2.95209	 2.66703
   390	 27.5701	 31.3007	 17.4219	-0.976565	-0.624836	 1.83309
   391	 25.0664	 32.4907	 15.8841	0.0792856	 3.12238	-10.0423
   392	 28.2167	 31.6173	 18.2625	 3.46916	 2.17019	-2.34796
   393	 23.8223	 30.8144	  16.728	   -5.26	 6.44993	-7.79177
   394	 27.5618	 29.4351	 16.6393	 1.81499	-7.71457	 4.12053
   395	 25.2819	 28.9303	 17.9209	  5.4357	 4.45623	-9.04724
   396	 26.9354	 33.2357	 17.6832	0.150559	-0.685439	 2.76934
   397	 9.43633	  37.049	 26.1843	  2.2057	0.876961	 1.01621
   398	 9.17786	 36.5768	 27.5108	0.0642569	 1.05753	 2.84501
   399	 10.0422	 37.1031	 28.5309	-0.620932	-0.133514	 2.74298
   400	 10.9605	 38.1087	 28.2982	-1.81046	-4.31245	 1.83105
   401	 11.1069	 38.6449	 27.0103	-3.94129	 1.00632	0.389472
   402	 10.1635	 38.2855	 25.9753	 -1.6049	-2.29849	-0.460732
   403	 8.12121	 36.7588	 27.6933	0.184158	-7.26897	 4.47609
   404	 9.53509	 39.1642	 25.7711	-2.55979	-7.58817	 8.68426
   405	 10.3738	 36.3504	 29.2677	 -12.676	-3.33595	 -4.0878
   406	 12.0966	 38.6261	  26.518	 6.40949	 1.76887	 11.3005
   407	 11.2732	 38.8129	 29.0832	 1.43336	-8.40203	-1.12831
   408	 9.92062	 36.3037	 25.5792	-4.28567	-2.80861	-2.07958
   409	 25.2269	 37.4954	 12.0177	-3.72882	-0.100742	0.694628
   410	 25.3115	 36.6064	 10.9035	0.0370877	-0.553439	0.692042
   411	  26.418	  36.628	 10.0772	-2.99218	-1.25102	-2.56011
   412	  27.391	 37.6496	 10.2154	-2.21023	-1.70938	-2.49487
   413	 27.2509	 38.6169	 11.2532	 1.17593	-0.304409	-0.352632
   414	 26.1227	 38.5901	 12.1443	-1.32375	 1.80438	-0.941483
   415	 24.3815	 36.1389	 10.5447	-4.69137	-18.8023	 3.74489
   416	 25.6645	 39.4938	 12.4393	  11.721	-0.446063	-0.273906
   417	  26.971	 35.6587	 10.2363	-3.77385	-5.20298	 7.41595
   418	  27.574	 39.6139	 10.9064	-10.9691	 7.57576	 -7.9409
   419	 28.3819	 37.2537	 10.0129	-7.29916	0.211397	 2.48272
   420	 24.9978	 36.9525	 12.9629	 -14.396	 3.08345	-0.653818
   421	 9.65072	 29.3828	 11.1957	-1.57433	0.410645	0.901004
   422	 9.07021	  29.337	 12.4884	-2.19319	-3.20741	 2.90114
   423	 9.95035	 28.9199	 13.5598	0.557136	 3.47399	 3.05759
   424	  11.353	  29.018	 13.4127	-1.74052	-0.635604	-1.75374
   425	 11.8649	  29.617	 12.1925	-0.137405	-4.72772	 1.15561
   426	 11.0129	 29.8185	 11.0699	-0.870714	 -4.5313	 1.72984
   427	 8.51533	 30.2382	 12.6765	 4.59155	 6.02237	  1.4559
   428	 11.0059	 30.8699	 10.7346	  4.3838	-1.37077	-1.74187
   429	 9.70582	 29.5123	 14.4753	0.935128	-5.04355	-2.58957
   430	 12.7123	 28.9482	  11.908	-12.1713	 5.81482	-4.42405
   431	  11.987	 28.2683	 13.8483	 3.41829	-6.19812	 15.3171
   432	 9.42989	 28.5108	 10.5117	 1.30278	 1.07215	 8.96777
   433	 30.9693	 28.2687	 12.3074	0.832704	-2.21985	 5.86375
   434	 30.6857	  27.812	 11.0304	-1.84021	 1.53725	-0.44255
   435	 29.7521	 26.7771	 10.8222	0.047556	-3.15022	0.0368972
   436	 29.7201	 25.8026	 11.8479	-1.80258	 1.93167	 1.94642
   437	 29.9606	 26.1814	 13.1967	0.307679	-1.58138	 2.02754
   438	  30.696	 27.3993	 13.3952	-0.0126679	0.0103966	0.475396
   439	 31.5337	    27.8	  10.405	-0.547914	-0.495239	-6.30633
   440	 31.1533	 27.5842	 14.3562	 5.47935	  3.7999	-4.18911
   441	  28.823	 27.1028	 10.4331	 8.35476	 7.34678	 1.75802
   442	 29.0106	 26.2353	  13.736	 -6.4594	 -10.536	 11.0746
   443	    29.5	 24.7752	 11.6195	-6.29571	-0.0426935	 3.11251
   444	 30.6459	 29.2995	  12.457	 -2.5945	-0.0815821	-1.05572
   445	 15.9437	 18.3304	 24.8901	 1.48919	 1.31609	-3.27221
   446	 16.0834	 19.7332	 24.6215	-4.03877	-1.44421	0.0985972
   447	 14.9104	 20.4817	 24.2112	-1.36238	-3.19002	 0.38217
   448	 13.6306	 19.9109	 24.4535	-2.49864	-2.59078	 1.38187
   449	 13.4824	 18.7163	 25.2272	-2.45678	-2.70177	-0.501147
   450	 14.6847	 17.9586	 25.4772	-1.00304	0.164216	 4.33263
   451	 16.7906	  20.227	 25.2233	 10.0643	-8.27834	 3.76313
   452	 14.7924	 17.5218	 26.4776	-8.15779	-11.8417	 4.71945
   453	 14.9485	 21.4468	 24.6543	 3.70944	 1.93182	-8.56534
   454	 12.6851	 18.1069	 24.7612	-0.341107	 4.88969	 17.0254
   455	 13.0334	  19.817	 23.5044	 4.54953	-15.5942	 7.84644
   456	 16.2314	 17.7188	 24.0089	-1.21192	-8.94252	 6.37757
   457	 16.2728	 14.5966	 11.6608	-0.436852	-2.23899	 2.81716
   458	 17.0873	 15.5686	 11.0588	-0.772208	 2.18115	-0.596518
   459	  17.043	  15.746	 9.62887	  1.3634	-1.66134	-2.35773
   460	 15.8958	 15.2548	 8.89073	 -2.4507	-1.29026	 1.22792
   461	  15.095	 14.2084	 9.49383	-1.64526	-2.29716	 1.02661
   462	 15.2878	 13.9536	 10.9014	 2.02529	-2.80172	-2.99732
   463	 18.0955	  15.475	 11.3922	 6.05127	-14.1993	-1.17947
   464	 14.4557	 13.5969	 11.4447	-3.08476	-2.30253	 2.67498
   465	 17.9615	 15.2425	 9.20767	 4.84008	-12.8317	-0.889236
   466	 14.9507	 13.3072	 8.87847	 2.17222	-3.79109	 7.85497
   467	 15.1667	 16.0627	 8.65941	 1.59702	0.511327	 3.00229
   468	 15.9486	 14.6911	 12.6677	 10.0311	0.235503	-11.9701
   469	 19.9842	 20.3377	0.894742	-2.36669	0.0452944	  2.5011
   470	 21.2113	 20.4854	 1.64816	-1.45092	0.524445	-0.553103
   471	 21.5289	 21.7148	 2.26776	 0.97285	 1.32645	  4.0162
   472	 20.4172	 22.5704	 2.58763	 2.11848	 1.07109	-0.139256
   473	 19.1227	  22.327	 2.02976	-3.90665	-1.19954	 3.53255
   474	 18.9514	 21.1815	 1.17945	-4.11712	0.367859	-0.794129
   475	 21.3752	 19.6064	 2.22174	-8.99711	 6.06731	 8.79568
   476	 17.9915	 20.7346	 1.41213	-1.56384	 10.0011	  3.8873
   477	 22.2133	 22.3169	 1.62169	 7.08654	 8.56477	 7.10885
   478	 18.2643	  22.584	 2.61585	-3.60705	-5.39351	-0.0422686
   479	 20.7291	  23.611	 2.53276	-2.76134	-1.77747	-5.58317
   480	 20.0512	 19.9957	 39.9028	-8.27358	-3.98233	-3.65662
   481	 32.6099	 33.6469	 13.0444	 -3.2862	-0.00805928	0.865458
   482	 31.6853	  34.699	 12.7468	-1.27753	0.870728	 0.62745
   483	 31.2164	 34.8015	 11.4729	-1.29211	-0.678765	 2.66163
   484	 31.3048	 33.7091	 10.5508	0.494164	-1.53917	 1.09168
   485	 32.1297	 32.5602	 10.8522	-0.848209	-2.44456	-0.879028
   486	  32.584	 32.4716	 12.2152	-2.62719	-1.94244	-2.56656