ITEM: TIMESTEP
0.608496
ITEM: NUMBER OF ATOMS
1200
ITEM: BOX BOUNDS
0	40
0	40
0	40
ITEM: ATOMS index type x y z
     1	 9.97851	  20.272	 30.9768	 2.63883	0.675943	 1.36599
     2	 10.0362	 19.9133	 32.3764	-2.51032	-2.35507	0.238082
     3	 10.2776	 18.6096	 32.6185	-1.28678	-2.69623	 2.64383
     4	 10.1367	  17.562	 31.6866	0.227595	-2.57618	-1.74777
     5	 9.84184	 17.8949	 30.3081	-2.51455	-0.814216	 2.04971
     6	 10.0717	 19.2722	 30.0594	 0.65274	-1.37019	 1.77673
     7	 9.14363	 20.2816	 32.8958	-6.54935	 3.81707	 8.91944
     8	 9.77216	 19.5806	 29.0704	-7.83354	 7.79787	0.0780463
     9	 10.9266	 18.3598	 33.4722	 5.57948	-4.77329	 4.43734
    10	  10.609	 17.3415	 29.7148	0.872066	 5.73798	 11.6913
    11	 9.51849	 16.6934	 32.0215	-4.07088	-1.79832	 3.75008
    12	 10.2898	  21.306	 30.7598	 3.02125	-0.300331	 8.37698
    13	 39.0969	 33.2119	 33.3974	-0.316047	0.703991	-0.723994
    14	  39.436	 34.4494	 34.0141	  2.4577	0.876639	 1.33345
    15	 38.6609	 35.6072	 33.7372	 1.46363	-0.0435255	 1.96373
    16	 37.5219	 35.5547	 32.8435	0.340882	-1.43123	-2.04882
    17	 37.1743	 34.2506	 32.3294	-1.25652	-1.28089	 2.36476
    18	  38.043	 33.1716	 32.4385	0.280265	 2.07536	-1.52468
    19	 39.4257	 34.3421	 35.1367	 13.1761	 1.57077	 3.94026
    20	 38.5047	 32.9589	 31.4755	-7.72489	-2.03581	 3.24467
    21	 39.3168	 36.4595	 33.4359	  -3.446	-1.56821	0.0358689
    22	 36.1341	 34.0628	 32.1341	 6.00631	-4.30249	-3.53299
    23	 36.6251	 35.9488	 33.3872	-2.41424	 5.46782	 2.40245
    24	0.0213295	 32.8199	 32.8784	-3.55627	  1.4986	 5.50046
    25	 39.3416	 22.6217	 37.9355	 2.78452	-2.46157	 1.91824
    26	 38.2882	 23.0267	 37.0588	-2.78095	-2.19928	-0.90743
    27	 37.9538	 24.3883	 37.0865	-1.72575	-0.965945	  2.8074
    28	 38.3656	 25.2828	 38.1279	 -2.2238	-1.71435	 1.24913
    29	 39.5818	 24.9289	 38.7034	0.586582	-1.38103	 1.20481
    30	0.0759309	 23.5679	 38.7214	-0.179403	-0.712404	 -1.4461
    31	 38.6233	 22.7279	 36.0375	-5.56013	  1.2577	 7.02193
    32	0.457552	  23.281	 39.6857	 5.38144	-2.38904	 11.0982
    33	 37.8552	 24.8447	  36.062	-3.48978	-1.60138	0.886321
    34	 39.9682	  25.444	 39.5925	-3.16433	-0.0954497	-4.15581
    35	 38.3305	 26.2975	 37.7435	-7.34897	 5.87999	-5.42927
    36	 39.9368	 21.7575	 37.6184	 9.73237	-2.18586	 10.8107
    37	 22.4956	 37.0874	 37.8721	-1.42786	 1.85725	-1.50813
    38	 23.4508	   37.76	 37.0233	-2.39643	-2.83009	0.197263
    39	 23.1024	    38.1	 35.6759	  0.7179	0.0219062	0.181197
    40	 21.7521	  37.911	 35.2652	-0.252856	-3.71567	0.952138
    41	 20.7691	 37.5157	 36.1924	-1.62219	0.507164	 3.08686
    42	 21.2033	 36.8171	 37.3819	-3.82146	-3.28455	0.0846103
    43	 23.7498	 38.7347	 37.4961	0.0322066	 -4.0712	-2.86999
    44	 20.8293	 35.8218	 37.3278	 11.9053	-5.84488	  4.1074
    45	 23.7503	 37.5785	 34.9861	 5.34158	 8.66369	-8.28178
    46	 20.1949	 38.3745	 36.5266	-9.61861	 7.99002	-3.55637
    47	  21.554	 37.8613	 34.2124	  6.7299	-4.77171	 -5.6153
    48	 22.5335	 37.5421	 38.8825	 4.85388	 6.75617	  4.9357
    49	 34.4089	 23.0466	 35.7727	-0.364907	-0.584836	-1.04279
    50	 34.0176	 22.0449	 34.8561	-1.03264	-0.551891	 3.59603
    51	 32.6762	 21.8465	 34.4416	-2.33712	 3.23575	-0.353827
    52	 31.6978	 22.6289	 35.1212	0.306298	 -1.3886	 1.79711
    53	 32.0138	 23.7643	 35.9143	-3.31168	-1.83098	0.494709
    54	 33.4179	 23.9264	 36.2437	-3.14656	-1.41488	 4.01101
    55	 34.6618	 21.1804	 35.0103	 4.12296	-5.36648	 7.28081
    56	 33.5323	 24.0935	 37.2897	-8.37999	  10.311	-2.14823
    57	  32.515	 22.0009	 33.3382	-8.50448	-0.589988	-4.63239
    58	 31.5082	 24.6487	 35.5682	-3.57621	  4.3475	 0.85486
    59	 30.8137	 22.0663	 35.3836	0.820771	 4.16161	 9.31538
    60	 35.0191	 22.5521	 36.5673	 6.48952	0.629144	 2.69194
    61	 28.4753	 28.2849	 22.0011	-1.82242	 1.67826	0.954805
    62	 27.2424	 28.9568	 22.2436	-1.41268	-0.536054	 2.12435
    63	 26.1506	 28.8355	 21.4601	0.712418	-2.43231	-1.70716
    64	 26.1255	 27.7929	 20.4739	 2.08497	-0.638621	-0.512721
    65	  27.289	 26.9573	 20.2833	 -1.0897	 1.58521	 1.93771
    66	 28.4857	 27.3567	 20.9968	-0.0803575	-2.35962	 1.48799
    67	 27.3049	 29.5285	 23.1493	 1.50156	-4.04981	0.358556
    68	 29.3584	 27.2495	 20.3445	-1.36191	 12.3967	 6.95976
    69	 25.7417	 29.7745	 21.0328	  1.7197	-8.53928	 8.64994
    70	 27.3772	 26.5431	 19.3159	-1.85968	 -5.3001	-4.89278
    71	 25.2145	 27.2652	 20.5952	-3.93284	 1.64622	-4.36492
    72	 29.3098	 28.5138	 22.6344	-1.06716	-3.24065	-5.24602
    73	 4.97844	 26.6923	 13.5645	-2.60221	 2.13273	 2.39505
    74	 5.12925	 25.3624	 13.1249	-0.623213	-2.41352	 2.03358
    75	 5.69621	 25.0688	 11.8348	-1.35085	-1.90489	-0.763638
    76	 6.28563	 26.1848	 11.1381	-1.04023	-1.76018	 3.35608
    77	 6.37046	 27.4762	 11.7532	 3.82599	-2.50868	  3.4543
    78	 5.49568	 27.7126	 12.8334	-0.0543904	-0.729313	-1.14387
    79	 5.65008	 24.7575	  13.911	0.614001	 14.8083	-3.22633
    80	 4.90022	 28.6199	 12.5525	-9.79267	 0.25296	 7.07235
    81	 4.81578	 24.7269	  11.219	-7.69535	0.477686	 7.17372
    82	 7.41973	 27.7438	 11.8178	0.642816	-2.92776	 -4.8282
    83	 5.95216	 26.1851	 10.1034	 9.62236	-6.55755	   7.065
    84	 3.92258	 26.8401	 13.9223	-8.71055	-0.363165	 3.30906
    85	 16.8491	 26.9123	 34.4758	-1.27538	-0.686241	 1.03067
    86	 17.2757	 28.1537	 35.0586	 0.60425	0.741889	 2.78823
    87	 17.9266	 29.1112	 34.2259	-0.381458	-2.35655	-2.71353
    88	 17.7455	 28.9849	 32.8167	-4.96657	0.517847	 1.20056
    89	 17.2442	 27.8102	  32.277	-2.14337	-1.11189	 1.55656
    90	  16.627	 26.7786	 33.0914	 1.04946	 -2.9434	 3.47391
    91	 16.3883	 28.5814	 35.5347	 6.17089	-4.58229	-1.57614
    92	 15.5975	 26.7391	 32.7742	-5.06047	 11.5213	 2.60537
    93	  18.934	 29.3805	 34.5624	-7.21619	-8.80353	-13.4471
    94	  17.983	 27.3177	 31.6305	0.0654022	-3.22006	-5.40036
    95	 17.2245	 29.8805	 32.4461	-2.13671	-9.57139	 1.34431
    96	 17.3721	 26.0963	 34.9798	  4.9557	-2.28403	 5.39113
    97	 20.4581	 35.1911	 21.1827	-0.325562	-0.120605	0.387048
    98	 21.3407	 34.3417	 20.4299	-4.57796	-1.88741	-0.593106
    99	 20.9098	 33.6055	 19.3585	-2.93087	-2.46312	-0.151661
   100	 19.8269	 34.1417	  18.611	-0.233098	0.493272	-0.189916
   101	 18.9199	 35.0769	 19.2288	 -2.7015	-1.35695	 1.66642
   102	 19.1622	 35.4008	 20.6217	-2.11105	  0.6831	 1.17373
   103	 22.3849	 34.6235	 20.5623	 7.95768	 1.43678	 4.19677
   104	 18.2942	 35.3228	 21.2705	 12.5106	-2.74395	  4.8193
   105	 21.3722	 32.7491	 18.9464	-12.0091	-5.47974	 2.97826
   106	 17.8594	  34.763	 19.1783	 -7.1853	-1.58022	 10.0654
   107	 20.1007	 34.5608	 17.6323	 2.35562	 1.72022	-5.50083
   108	 20.3336	 34.9182	 22.2717	-6.23785	-1.76175	0.759472
   109	 23.3491	 28.5032	 2.83254	 1.76853	-0.803409	-0.639196
   110	 23.5668	 29.8814	 2.43993	0.819663	-0.686219	 2.08287
   111	 24.2689	  30.735	 3.35332	 1.43261	-1.25385	 2.51095
   112	 24.1852	 30.4004	  4.7519	-2.96874	 2.08864	-1.17705
   113	 23.3216	 29.3047	 5.10429	-0.0417149	-2.77351	0.554376
   114	 22.9075	 28.3774	 4.18931	 2.10642	 1.06652	0.369334
   115	 22.6564	 30.3315	 2.14597	 2.70657	-7.05293	-8.99803
   116	 23.1179	 27.3717	 4.52024	-0.804003	-2.72091	 8.20697
   117	  25.264	 30.9222	 3.05911	-3.79288	 3.31655	 6.93032
   118	 23.5984	 28.8232	 6.03756	 1.20449	 5.34079	 2.61269
   119	 23.7384	  31.318	 5.22825	-4.62653	-3.10639	0.0368411
   120	   24.03	 27.7876	 2.45061	-4.59909	0.696263	-8.18879
   121	 20.2247	0.772938	 8.76392	-1.10338	-1.13182	-0.313254
   122	 21.0573	 39.9623	 9.63439	 1.95856	0.383183	-1.17127
   123	 20.5502	 39.3318	  10.749	-0.123342	-3.12671	0.529613
   124	 19.2774	 39.7429	 11.2458	-1.88436	-2.60647	 3.49437
   125	 18.5039	0.699613	 10.5767	-0.713216	-0.327716	0.832745
   126	 18.9041	0.792531	 9.18419	0.452582	 1.62807	-0.790097
   127	 21.5771	 39.2687	 8.92108	0.113382	 6.31124	  -5.744
   128	 18.3202	0.0643617	 8.56935	-6.68087	-6.43978	 5.22487
   129	 20.6373	 38.2214	 10.7798	 5.21241	-6.68556	-3.69757
   130	 18.4323	 1.67695	 11.0312	  3.4781	 6.32339	-0.421543
   131	 19.2383	 39.8397	 12.3393	-6.19002	-2.15656	  8.8322
   132	 20.6455	 1.75112	 8.56514	0.412035	 1.46346	-4.66688
   133	 15.5392	 22.5899	  29.953	-0.399283	-0.135003	-2.56794
   134	 16.2136	  22.841	 28.7138	 1.86759	0.395377	 2.13595
   135	 16.7853	 21.7111	 28.0508	0.151063	-1.16132	0.289501
   136	 17.2543	 20.6236	 28.8791	-1.56154	-3.04371	0.568544
   137	 16.6028	 20.4307	 30.1499	-2.47158	 0.32729	 1.32244
   138	 16.2383	 21.6633	 30.8096	 1.07685	-4.19815	 3.15794
   139	 16.8943	 23.7412	 28.7319	-10.5234	-1.44896	 3.10049
   140	 17.0766	 22.0936	 31.3897	-14.0467	-3.64869	  1.1653
   141	 16.1141	  21.401	 27.2111	  10.786	 -11.734	  5.7828
   142	 15.8028	 19.7472	 30.1557	-0.0786629	 -7.1624	 15.6148
   143	 18.3476	 20.6672	 28.9582	-8.34137	 -2.3384	 1.48511
   144	 14.5201	 22.1615	 29.7734	-2.44833	-4.55804	-2.26565
   145	 15.2662	  28.996	  19.326	-3.72827	-2.10268	-1.42056
   146	 14.6757	 28.6868	 18.1403	 3.14595	-0.602412	0.496542
   147	 14.4705	 29.6911	 17.1799	0.886956	-3.98923	-0.255921
   148	 14.5827	 31.0163	 17.6964	-2.60895	-2.47192	0.679216
   149	   15.32	 31.3712	 18.8177	-0.413485	-0.727718	 4.48652
   150	 15.3486	 30.3093	 19.7982	0.340679	 1.56053	 3.21003
   151	 14.4431	 27.7134	 17.7787	-5.36647	-2.10243	 5.45966
   152	 14.7041	 30.5408	  20.697	 10.7818	 2.57199	 5.71267
   153	 15.0456	 29.5513	 16.2996	0.788952	 3.11707	-2.97013
   154	 16.3035	 31.7465	  18.725	  8.5068	-0.234595	-3.02506
   155	 13.5372	 31.4279	  17.688	-10.9774	-5.62439	-1.48137
   156	 15.7559	 28.2537	 19.9814	-0.275379	 3.05532	-2.33862
   157	 38.6471	 27.9749	  8.0282	-1.45874	-0.0896975	 2.18514
   158	 38.3064	 26.7986	 7.25348	-2.21587	 2.32423	 1.55264
   159	 39.1017	 25.6514	 7.51503	0.774881	-0.266394	0.0374926
   160	 39.7977	 25.5026	 8.70804	-2.48597	0.845535	-3.16489
   161	 39.7145	 26.5099	 9.66199	-2.60252	 2.36303	 3.81049
   162	 39.2774	 27.8253	 9.31993	 1.22332	-2.87453	0.977554
   163	  37.254	   26.47	 7.40086	 4.58913	-5.25655	 11.9443
   164	 38.7815	 28.4058	  10.106	 2.04293	 -1.9253	 1.92084
   165	 39.5308	 25.1618	 6.67572	 6.62354	-6.20588	 6.26832
   166	 39.2261	 26.1426	 10.5947	  7.8954	-4.72734	 1.67888
   167	0.785666	 24.9641	 8.67215	-0.818339	  11.316	0.0370582
   168	 39.1643	 28.7404	 7.48676	-3.83925	-5.40053	-7.47509
   169	 14.1086	 35.0765	 33.4054	0.0642909	-1.19792	0.0877011
   170	 14.2354	 34.2812	  32.215	-2.11336	-4.70584	0.225789
   171	 13.3063	 33.2263	 32.0201	 -1.1338	 -1.5097	0.0921286
   172	 12.4472	 32.9475	 33.1555	-0.50096	 1.10001	-1.67083
   173	 12.8241	 33.2797	  34.482	0.145268	-0.561816	 0.15581
   174	 13.6097	 34.4163	 34.5552	-1.47366	-0.231067	 2.69315
   175	 15.2083	  34.131	 31.8143	 1.90018	-2.71628	 -11.155
   176	 13.8596	 34.8444	 35.5267	 -18.616	-0.26728	 7.20697
   177	 13.6846	    32.3	 31.5979	 8.75149	-2.92029	 1.01267
   178	 13.0186	 32.4161	 35.0651	-1.51851	 1.82035	-3.11307
   179	 11.4504	 33.0761	 32.8088	 4.67768	-4.31633	 1.60509
   180	 13.4365	 35.9276	 33.1599	-14.7236	-10.9017	 8.96196
   181	 24.8277	 5.95045	 34.3437	-2.10349	0.585073	 1.65884
   182	 24.7109	 7.37334	   34.48	-2.21975	-2.74582	-0.935876
   183	 24.1544	 7.84722	  35.641	-0.505779	-0.0863694	 0.72404
   184	 24.0981	 7.02887	 36.8294	-4.49233	 -3.2975	 1.31119
   185	 23.6077	  5.7348	 36.5187	0.229024	 1.41724	 2.09623
   186	  24.031	 5.25229	 35.2888	-1.85005	-0.223963	0.0739824
   187	 25.6539	 7.88029	 34.1862	-2.39961	 6.87236	0.532476
   188	 23.3609	 4.52918	 34.7369	 -11.446	0.753018	0.629305
   189	  23.234	 8.39121	 35.4829	-1.42017	0.717279	 6.61353
   190	 22.6093	 5.50954	 36.7535	-0.119658	-10.9243	 8.31153
   191	 25.0621	 6.98311	 37.3306	-6.78522	-4.67245	 9.52274
   192	 25.8554	 5.58057	  34.339	 7.89586	-1.12077	 1.31846
   193	 29.1242	 29.4598	 38.7213	 2.73444	 1.24605	 1.34074
   194	  28.046	 30.3042	 38.2756	-2.15506	 1.04414	 2.64024
   195	 28.1034	 31.6533	 38.2317	-2.17404	-1.68672	 -1.2686
   196	 29.2524	 32.3051	  38.744	-1.30342	-2.14387	-1.58447
   197	  30.384	 31.5671	 39.2579	0.636054	 3.53754	0.886652
   198	 30.2747	 30.1634	 39.2208	-0.416634	-1.35607	 1.48049
   199	 27.0554	  29.803	 38.4621	-0.15746	-0.857892	 -8.6089
   200	 31.1943	 29.6192	  39.029	-5.13533	0.244663	 -7.2653
   201	 27.5745	 32.1428	 37.4264	-4.21492	 3.25806	-3.95387
   202	 31.2929	 31.9007	 38.8529	 1.24513	 2.72797	-7.88969
   203	 29.6416	 33.0063	 38.0193	-4.78321	-2.97262	 5.67955
   204	 28.7231	 28.9161	 39.6091	 6.27922	-6.49004	 8.29673
   205	  27.185	 8.22126	   39.61	-1.30323	-1.45148	0.0615193
   206	 27.9375	 9.42796	 39.6974	-1.09751	 0.19505	0.0600065
   207	 27.2901	 10.6894	 39.9311	-0.952351	-1.47878	 2.12779
   208	 25.8556	  10.664	0.108177	-3.92125	 0.88057	0.0266145
   209	 25.1363	 9.50502	 39.7305	-3.55426	-2.00042	 1.37147
   210	 25.7759	 8.27962	 39.9192	-5.92173	-0.0602966	0.645626
   211	 28.7803	 9.35078	0.361779	 6.26578	-9.57355	 1.61902
   212	 25.4258	 7.73945	0.784258	 10.3763	0.233591	0.364647
   213	 27.7787	 11.1651	0.807698	 2.71712	-3.24833	-4.84848
   214	  24.643	 9.67657	  38.809	-2.10565	-10.8393	-7.28746
   215	 25.3418	 11.5952	  39.731	-2.64919	-4.71672	-13.7363
   216	 27.3098	 7.85503	 38.5903	 1.66803	 6.16686	0.888851
   217	 17.5071	 5.47998	  2.9442	-2.11257	0.653667	-0.0217273
   218	 16.1334	 5.64673	   3.342	0.109974	-0.777643	 2.26607
   219	 15.6327	 6.93889	 3.59102	0.383792	0.882543	0.317845
   220	 16.5632	 7.99271	 3.86997	-0.652584	-0.62694	 2.56926
   221	 17.8323	 7.90602	 3.30279	-3.94801	-1.27011	 1.34945
   222	 18.3116	  6.6588	  2.7351	-4.36474	  1.9898	 4.23115
   223	  15.691	 4.92096	 3.98637	0.716212	-5.36305	  12.426
   224	 18.5369	 6.78937	 1.67818	 2.71687	 10.0042	 2.32325
   225	   14.81	 7.12673	 2.92083	 -2.5984	-6.29848	 6.99471
   226	 18.5794	 8.58537	 3.65275	-3.48598	-1.51094	-2.25132
   227	 16.2032	 8.94736	 4.17816	 9.31742	  8.2918	 4.53817
   228	 18.1084	 4.79436	 3.58105	-5.64645	-2.61816	0.0184656
   229	 3.23011	 23.0812	 19.7534	-3.11307	0.650751	0.712881
   230	 3.00154	 21.8099	 19.2782	-0.967662	-1.64699	 4.51422
   231	 1.68335	 21.5171	   18.76	-3.12044	-1.59159	-0.0146104
   232	 0.99517	 22.5934	 18.0694	0.354732	-0.976149	0.757359
   233	 1.49989	 23.9442	  18.228	-2.39769	0.916161	 2.12803
   234	 2.56374	 24.1553	 19.1374	  1.2681	-1.67926	-0.844883
   235	 3.76833	 21.3245	  18.661	-3.74786	-8.41191	 5.10133
   236	 3.32378	 24.8035	 18.6251	 2.71537	 6.03922	 6.54996
   237	  1.0913	 21.1622	 19.5791	-2.20485	 7.98299	 -3.2621
   238	0.684981	 24.7131	 18.1932	0.998046	-4.21839	-7.04987
   239	0.651031	 22.2643	 17.1335	-8.93556	 12.9791	-3.07252
   240	 3.41115	 23.1382	 20.8316	 2.43286	-3.46257	 3.55584
   241	0.726404	  14.749	 29.7156	-0.149773	-1.19178	 3.69615
   242	 1.29551	 13.8465	 30.5785	-0.978559	-1.61402	0.858078
   243	 1.98706	  14.358	 31.7445	-2.37824	0.216154	 2.48936
   244	  1.8893	 15.7213	 31.9955	-1.52294	0.0297918	 3.84055
   245	  1.4299	 16.6079	 31.0798	-0.448738	-0.0795205	 3.63006
   246	0.527261	 16.0825	 30.0859	 1.19263	0.153631	 1.82382
   247	0.767386	 12.8968	 30.7022	 2.22443	 4.24748	-6.50424
   248	 39.5246	 16.4317	 30.0486	-8.33872	-6.17108	-3.97137
   249	 2.94518	 13.8933	 31.7861	 3.17259	-2.42251	-3.49677
   250	   2.108	 17.3887	 30.6249	 8.96649	-12.0754	 2.94988
   251	 1.96734	 16.1082	 33.0009	 -9.0753	-2.29297	 9.37255
   252	 1.19294	  14.698	 28.7025	-7.16134	-2.05809	-4.28993
   253	 22.6279	 16.3622	 12.0229	-0.52598	-0.766899	 1.43062
   254	 23.2511	 17.6604	 12.0485	-1.65285	-2.14794	-2.53394
   255	 24.3644	 17.8428	 12.9328	-2.21276	-2.59927	 4.10863
   256	 24.9578	  16.739	  13.556	-0.919256	-0.851266	 2.51598
   257	 24.2575	 15.5091	  13.538	-0.356825	0.131501	-0.00139645
   258	 22.9987	 15.3261	 12.8737	 3.32618	-1.37539	 1.56501
   259	 22.6012	 18.5031	  12.185	-4.37714	 4.99813	-6.40133
   260	 23.0523	 14.3932	 12.2477	-2.05293	 2.36196	-4.59839
   261	 24.1536	 18.6854	 13.6562	   2.572	 2.10229	 1.35693
   262	 24.2486	 15.0218	 14.4912	  8.8573	-5.88694	 1.65475
   263	 25.9839	 16.5928	 13.3325	-0.281999	 8.34638	-10.3889
   264	 21.8699	 16.1532	 11.3139	-3.65864	-13.6126	 2.34244
   265	 10.3506	 11.7566	 24.1892	-2.99182	-3.13992	 2.34392
   266	  11.677	 11.8951	  23.672	 0.35288	-0.54273	-0.211727
   267	 12.1148	 13.0891	 23.0316	-0.78308	-1.92377	 1.78299
   268	 11.3478	 14.2096	 23.2442	-1.89212	0.329653	-0.302824
   269	 9.97167	 14.1719	 23.6463	-1.89738	-0.705306	-0.704606
   270	 9.52835	 12.9486	 24.1813	-1.38287	-1.22539	-0.275283
   271	 12.3669	 11.4858	 24.4523	0.804797	 8.29686	-2.19206
   272	 8.92127	 13.0039	  25.124	 14.9603	 6.01755	 2.92444
   273	 13.1957	 13.2575	 23.1936	-4.95898	-1.83411	-7.45259
   274	 9.40871	 14.4609	 22.7222	-7.81575	-1.07846	0.209756
   275	 11.8587	 15.1414	 23.4852	-1.53721	-3.60392	-9.68257
   276	 9.86581	 10.8805	 23.7381	-3.58325	 2.09342	0.355183
   277	 3.21709	 36.3294	 18.2986	-0.743595	 1.08894	-3.64611
   278	 2.30615	 35.2004	 18.2896	-2.14099	-1.92206	-1.04851
   279	 1.73034	 34.7956	 19.5449	-4.71188	0.499333	-0.325413
   280	  2.5873	 34.9399	 20.6683	 1.21581	-2.75556	0.789446
   281	 3.45734	 36.0979	 20.7054	-5.03793	-1.81847	 1.71018
   282	 3.65682	 36.8455	 19.5454	-3.65848	-0.0194268	 2.58251
   283	 2.72588	 34.3942	 17.7633	-4.18404	-8.06325	-7.52998
   284	 3.56083	 37.9502	 19.6466	 6.81283	-8.16696	 1.68784
   285	0.835224	 35.4319	 19.7035	 4.92947	 -6.4271	 3.53665
   286	 3.82333	 36.4232	 21.6636	-3.71527	 11.4067	 5.33682
   287	 3.08205	 33.9837	   20.84	0.768665	-4.29172	-0.0399527
   288	 3.89085	 36.3011	 17.4684	0.794194	 11.0237	-7.17608
   289	 20.9532	 2.20063	 28.1915	-2.12271	-3.22529	-0.0697835
   290	 22.1526	 2.29154	 27.4361	-1.65125	-2.15125	-0.0866958
   291	 22.7688	 3.51906	 27.3446	 -1.8987	0.316543	-1.08235
   292	 22.0899	 4.72625	 27.6526	-1.59291	 2.54855	-0.959657
   293	 20.9585	 4.65529	 28.5396	-0.813593	-0.466155	 1.08863
   294	  20.305	 3.39103	 28.6958	-1.93351	-0.998138	 2.59883
   295	 22.1564	 1.78161	 26.4976	-4.29681	-3.23213	 2.27756
   296	 20.0366	 3.14848	 29.7267	 8.50525	0.200188	-5.78926
   297	 23.7779	 3.48997	 27.7203	-0.0747235	0.0425997	 4.02321
   298	 20.2324	 5.45776	  28.347	-1.59328	 3.23883	  5.8972
   299	 21.8682	 5.44696	 26.8892	-1.99005	-3.10923	 9.33215
   300	 20.9651	 1.39201	 28.9077	-3.98942	 5.75601	 9.83873
   301	 20.1559	 34.4792	 7.95052	0.614715	-0.697066	0.822561
   302	 19.2825	 34.2423	 9.05147	0.657276	-0.200517	-1.32525
   303	  18.412	 35.3142	 9.45925	-3.26787	-3.14603	 2.14811
   304	   18.04	 36.3439	 8.51224	-2.09139	-1.30389	0.785828
   305	 18.6686	 36.2852	 7.22711	-5.36246	-0.526051	 2.32887
   306	 19.7573	 35.4678	 6.97986	-0.784061	 -1.6136	-1.78102
   307	 19.0235	 33.2282	 9.32333	 6.57027	-1.93188	-14.0643
   308	 19.9251	  35.264	 5.94969	-6.18597	-7.14525	  5.2549
   309	  17.575	 34.8103	 9.97715	-6.43343	-2.70416	0.882631
   310	 17.9137	 36.1936	  6.4335	-0.0595282	0.980669	-0.991254
   311	   17.78	 37.2804	 8.91014	-0.0853781	 7.21663	-3.42753
   312	 21.2257	 34.6344	 8.25559	-4.46618	 4.41418	 5.96068
   313	 32.4856	 19.9262	 24.1762	-1.92426	-1.01564	-0.334242
   314	 31.2254	 19.4856	 23.6989	-0.849675	-2.34905	0.0858019
   315	 31.3175	 18.9472	  22.388	-1.35787	0.592779	-0.70912
   316	 32.3206	 19.4459	 21.5715	-2.87411	-3.88949	 1.24192
   317	 33.3924	 20.2674	 21.9798	-0.0223538	-1.12801	0.320633
   318	 33.3807	 20.6212	 23.3325	-0.549442	 2.00777	 1.00501
   319	 30.4901	 20.2533	 23.7132	-6.10671	 2.71382	 12.8668
   320	  33.555	 21.6791	 23.6053	-5.95253	 5.21153	-5.00242
   321	  31.124	 17.8859	  22.347	-5.35159	-4.76857	0.172484
   322	 34.3844	 20.0161	  21.559	 7.79728	-1.91661	 5.61781
   323	  31.973	 19.5753	 20.5173	 7.24287	-6.96878	 4.34514
   324	 33.0268	 19.1354	 24.7698	-6.58476	 5.54552	-11.6933
   325	 3.75559	  3.9879	0.679222	 1.28696	-0.138788	0.547085
   326	 5.06156	 4.42057	0.508107	-0.678873	0.898709	 1.99565
   327	 6.15226	 3.50335	0.705786	-3.34743	-1.68177	0.402819
   328	 5.93705	 2.08434	0.600196	-2.81414	 1.17884	0.250185
   329	  4.6132	 1.79339	0.146389	-3.22709	 1.60098	0.971605
   330	 3.49819	 2.56205	0.614428	-1.86049	-2.05386	 1.20559
   331	 5.10143	 5.06073	 39.6153	 3.41337	 2.61478	 3.17628
   332	 2.55502	 2.32978	0.0781912	 -6.9662	-5.98551	 16.0651
   333	 6.53607	 3.67091	 1.74136	-8.32391	0.848991	 11.8622
   334	 4.42262	 0.71834	0.0213083	-7.24471	-1.18657	 1.55375
   335	 6.75636	 1.71048	 39.9295	-3.49136	 2.86981	-3.68337
   336	 3.26224	 4.55773	 1.45016	-4.68439	-3.42902	-6.31314
   337	 5.27777	 8.28831	 5.01668	-2.46397	0.463127	-2.54439
   338	  5.7529	 9.40201	 4.21842	 -0.4475	-3.63491	-1.69141
   339	 6.76791	 10.2039	 4.79879	-0.612289	 1.78525	 1.23291
   340	 7.54887	 9.72426	  5.9194	 -2.8148	-1.21421	0.472011
   341	 7.30613	 8.35671	  6.3309	-1.51688	-3.53889	 1.69942
   342	  6.2731	 7.61823	 5.83301	0.536773	 1.59544	 1.21691
   343	 5.89165	 9.05914	 3.18541	-3.04707	-13.7436	0.816678
   344	  6.5905	 6.73337	 5.29842	-0.855058	-1.49433	 4.65035
   345	 6.50195	 11.2389	 4.92822	-10.3814	 6.67119	-6.79135
   346	 8.23409	 7.93417	 6.60457	 -3.4987	 5.22224	-1.76378
   347	 7.21937	  10.346	  6.7797	-10.4821	-2.83772	 12.4777
   348	 4.51242	   8.675	 5.70714	  1.1682	 6.05438	 7.19151
   349	 34.5438	 23.5026	  25.717	-1.11635	-1.50853	0.374935
   350	 34.4219	 23.0616	 27.0248	 2.58982	-0.252043	 4.63528
   351	 35.1697	 21.9388	 27.5069	0.260464	 1.56195	 1.00803
   352	 36.2237	 21.4513	  26.685	 -2.9692	0.902864	 2.58474
   353	 36.2398	 21.8059	 25.2856	-3.18431	 3.34696	0.262841
   354	 35.4604	 22.8379	 24.8148	-1.48383	 2.70579	-2.00352
   355	 33.3366	 22.9967	 27.2861	-10.6277	-2.40228	 5.02372
   356	 35.7192	 23.4149	 23.9773	-1.17031	-7.67898	-1.76483
   357	 35.4754	 21.9718	 28.5889	-5.18348	 4.87212	 6.68736
   358	 36.1759	 20.8202	 24.7468	-4.09071	-3.62997	 14.2654
   359	 36.5127	 20.3989	 26.7791	 1.54096	-14.3674	-9.14651
   360	 34.6082	 24.5903	 25.4898	 4.07063	-2.42924	 8.23654
   361	 11.9738	 14.7213	0.496103	 2.14474	 1.28686	 2.82336
   362	 13.0402	 15.0713	 39.5822	-0.166829	-2.08288	0.945617
   363	 14.1562	 14.2128	 39.5071	-0.244034	-0.334977	  1.1876
   364	 14.0804	 12.8858	0.0397676	-4.04629	-1.42717	 1.10111
   365	 13.2004	 12.6945	 1.09539	-1.82862	0.651097	 4.70359
   366	 12.1607	 13.5988	 1.38425	-0.755164	-0.291739	 3.34527
   367	 13.3946	 16.0544	 39.9433	 5.70084	 6.02577	0.958731
   368	 12.1608	 13.9987	 2.42872	 1.40906	 1.24694	-2.20352
   369	 15.1428	 14.6115	 39.7447	 5.01511	-4.09184	-2.10091
   370	 13.3108	  11.836	 1.77606	-0.34123	  16.159	 6.21722
   371	  14.297	 12.1151	 39.3517	-7.25543	-6.31142	 4.51637
   372	 11.0551	 14.6322	 39.9618	 0.82439	 2.50443	 13.4745
   373	  38.442	 33.1161	 3.04594	-0.0151076	-3.66839	 1.55081
   374	 38.1667	  31.739	 2.77746	-4.22582	-0.286222	 1.90247
   375	 36.8483	 31.4228	 2.40126	-0.891826	0.433887	 0.49883
   376	 36.0885	 32.3753	 1.62492	 1.80936	0.591023	-2.59224
   377	 36.4103	 33.7582	  1.8038	-2.69687	-1.31366	0.676844
   378	 37.2385	 33.9171	 2.98211	0.193722	 -2.3657	-1.91012
   379	 38.8426	 31.3571	 1.99257	0.435767	-5.54177	 6.32228
   380	 37.1976	 34.8346	 3.51856	-2.54683	  2.3461	 4.22006
   381	 36.2974	 30.6609	 2.92334	0.414492	-5.18124	 7.39556
   382	 36.8762	 34.2433	0.981762	-0.569886	0.393942	-5.65399
   383	  35.063	 32.0798	 1.47639	 4.28068	0.779285	0.906058
   384	 39.2626	 33.5314	 2.50125	-7.51707	-3.28362	-7.84883
   385	 27.2239	 33.3108	 16.0778	-0.379782	-0.442178	 1.66989
   386	 25.8727	 33.2416	 16.5528	  -1.237	-1.56229	 -1.3745
   387	  25.254	 31.9635	 16.5081	-0.757069	-0.186524	 2.33974
   388	 26.0211	 30.8126	 16.5989	-0.755692	-4.07861	-0.903529
   389	 27.3578	 30.8931	 16.0448	0.496824	-1.31365	 4.50491
   390	 27.9466	 32.1148	 15.7124	-2.43453	-2.17415	 1.38996
   391	 25.2807	 34.0736	 16.2311	-1.98497	 1.52215	 2.05096
   392	  28.946	 32.2435	 16.1565	-1.50668	 10.6707	-1.86191
   393	 24.3461	 31.9303	  15.885	-2.75726	 7.36064	-2.28061
   394	 27.5501	 30.0934	 15.3093	 10.3003	-2.92764	 -2.7846
   395	 25.9529	  30.214	 17.5017	 3.02773	 2.39899	 5.18198
   396	 27.8436	   33.89	 16.8038	 9.55408	 -9.4386	 10.3911
   397	 9.81695	 37.9436	 25.3194	0.198047	0.758738	 1.63152
   398	 9.80409	 37.5727	 26.6553	0.923854	0.210537	-0.614122
   399	 10.8966	  37.773	  27.492	-0.960502	-3.11701	 1.88852
   400	 11.8099	 38.8153	 27.1003	-2.08801	 1.10792	0.369385
   401	 11.9924	 39.0731	  25.735	-2.71861	-4.13319	 3.06587
   402	 10.9175	 38.7348	 24.8246	-1.23402	-1.71515	 1.67685
   403	 8.89586	 37.4477	 27.2014	 3.55072	-13.4583	 10.7212
   404	 10.5643	 39.6165	 24.3543	 1.99445	-3.91943	-5.54527
   405	 11.4414	 36.9644	 27.9567	-0.716553	 -1.7846	 1.39259
   406	 12.8851	 38.5895	 25.3037	0.935698	 3.34056	0.470225
   407	 11.5425	 39.7176	 27.5991	-8.31676	 13.6215	 10.7247
   408	 9.34089	 37.2684	  24.633	-0.443794	 5.99401	 2.89255
   409	 26.3725	 37.2604	 12.0321	-1.09764	-0.0745255	 -1.7504
   410	 26.8235	 37.1698	 10.6702	-2.34603	0.0311279	  3.3666
   411	 27.9883	 37.8723	 10.2665	-2.81232	-2.16831	-2.14133
   412	 28.8416	 38.4522	 11.2851	-1.49911	-1.19365	-0.795788
   413	  28.237	 38.7985	 12.5331	-0.67838	 1.24156	-3.75082
   414	 27.0345	 38.1314	 12.9006	-2.49562	-1.30223	-0.105938
   415	 26.0107	 37.1615	 9.94172	-9.06349	-5.19397	 10.5439
   416	 26.3622	 38.9047	 13.3618	-2.55153	 -3.3188	-4.23865
   417	 28.5536	 37.4281	 9.45996	 7.41889	 2.41667	-6.08429
   418	 28.1505	  39.861	 12.6567	 6.88716	 12.8745	0.568121
   419	 29.8443	 38.1016	 11.2606	-1.58538	-6.51869	 9.12722
   420	 26.2721	 36.2222	 12.4093	-8.02775	 2.26267	-2.57657
   421	  10.772	 30.7986	 9.89243	-1.40705	-0.650527	  3.2513
   422	 10.3709	 29.6261	 10.5654	-3.58304	-2.12998	 3.66559
   423	 10.5272	 29.4958	 11.9585	0.0530913	 -1.0028	0.860625
   424	 11.5215	  30.318	 12.5723	-1.75126	-4.53681	0.375055
   425	 11.9723	 31.4913	  11.949	0.227672	0.297527	 1.47837
   426	 11.5131	 31.7625	 10.6049	0.977793	-3.78466	0.302348
   427	 9.31723	  29.332	 10.3289	-10.1393	-1.59739	 1.80567
   428	 11.0264	 32.7634	 10.6927	 1.29948	  1.0183	-10.3813
   429	 9.55434	 29.4518	 12.4833	-9.87954	-2.92106	 8.52909
   430	 13.0513	    31.5	 11.9291	-5.81097	-1.53187	  2.3907
   431	 12.0206	 29.9337	 13.4377	 6.90957	-0.150574	-3.00374
   432	 11.0875	 30.7355	 8.85651	-3.96195	 -5.0278	-1.83607
   433	 30.4967	 28.9066	 10.9523	 1.28943	-1.06577	 5.63407
   434	 31.1128	 28.1642	 9.86849	-0.423912	-1.45571	 1.08525
   435	 30.8081	 26.7518	 9.86035	-3.93993	-0.588005	-0.0543127
   436	 30.2488	 26.0643	 10.9363	 0.31775	-0.792834	 2.20512
   437	 29.8044	 26.8575	 12.0645	0.690332	0.149156	-0.454163
   438	 29.8812	  28.296	 12.0043	 0.23287	0.646996	0.742738
   439	 32.1643	 28.3497	 9.91896	-5.14973	-8.35131	 9.02774
   440	 30.1048	 28.7264	 12.9951	 5.59587	 1.12727	  8.5392
   441	 30.7458	 26.3454	 8.86754	0.929555	 1.97399	-1.26217
   442	 28.7328	 26.5931	 12.2433	 6.88244	-0.58072	 2.40629
   443	 29.6254	 25.2642	 10.6355	 8.09586	-9.03418	-0.900251
   444	 29.9734	 29.7604	 10.5092	-3.55428	 1.20781	0.263675
   445	 16.6267	 19.1727	 23.6734	0.580794	-2.20939	 3.91298
   446	 17.2962	  20.417	 23.6373	0.726202	-0.857342	 2.24886
   447	 16.6003	 21.6327	 23.8277	 -2.2863	-1.06033	 1.94487
   448	  15.244	 21.5917	 24.1786	 -3.8834	-1.59983	0.785397
   449	 14.4794	 20.3633	 24.1178	-3.56972	-6.08312	 1.04298
   450	 15.2393	 19.1464	 23.9802	-2.11494	 2.18221	0.114302
   451	 18.2125	 20.3246	 24.2258	-4.30541	 1.63483	 5.51962
   452	 15.0883	 18.4851	 24.8468	-0.328153	 6.73765	-6.88343
   453	 17.2678	 22.3139	 24.3622	-5.29082	-4.57617	 1.26608
   454	 13.8444	  20.395	 23.1825	-0.0508377	 5.56313	 8.57448
   455	 14.7031	 22.4856	 23.7797	 -3.8359	-12.1185	 1.14113
   456	 16.7869	 18.4963	 22.7989	-1.12259	-6.84607	 16.7077
   457	 15.5847	 15.6424	 11.6609	 3.31553	-1.98741	0.120492
   458	 16.8407	 16.3115	 11.4483	-0.659094	-0.178288	 1.09168
   459	 17.1384	 17.0491	 10.2896	-0.519716	-1.17276	-0.088936
   460	  16.582	 16.4803	 9.12756	0.166562	-2.71015	-1.39022
   461	 15.7113	 15.4363	 9.30546	 -2.3701	 -3.1655	-2.49081
   462	 14.8593	 15.4065	  10.458	-1.26146	-1.45233	 2.41247
   463	 17.6115	 15.5927	  11.757	 2.71178	 -14.939	-0.861287
   464	 14.0671	 16.1166	 10.2704	-2.84485	-7.14593	-7.80493
   465	 18.2198	 17.2599	 10.0846	 1.56923	 1.50834	-1.72668
   466	 16.0732	 14.4327	 9.15734	 10.1843	 12.8355	0.503408
   467	  16.129	 17.2538	 8.51873	-2.66171	-1.08877	-0.499334
   468	 14.9377	 16.0379	 12.4668	 5.64108	 6.93348	 3.51266
   469	 20.6785	 20.0902	 39.5082	-0.579431	-0.137267	 1.01994
   470	 21.8905	 20.2634	0.117311	 1.12875	-0.998308	 2.63314
   471	 22.1452	   21.54	0.755936	-0.519127	 1.92521	 3.20879
   472	 21.0741	 22.3621	 1.13424	 -1.6982	0.466068	 4.44979
   473	 19.7541	 22.0213	0.684173	0.569099	 0.91657	0.187124
   474	 19.5367	  20.794	0.0304148	-0.909789	0.275326	 2.49987
   475	 22.7744	 19.6542	 39.9043	-6.81871	-13.0523	-2.48564
   476	 19.0608	 20.0868	0.767045	 8.89565	   1.914	 2.69058
   477	 22.9771	 22.1045	0.312931	 1.63589	 -1.3668	 -2.6977
   478	 19.0059	 22.2167	 1.40501	-7.34516	-2.16662	 8.34709
   479	 21.3144	 23.4478	0.942451	-2.99519	 5.20508	 9.28124
   480	 20.5369	 20.0182	 38.4447	 4.99535	 4.54264	-0.181534
   481	 33.9378	 34.4839	 13.0752	-1.21386	-2.94897	 3.71848
   482	 32.9008	 35.3384	 12.5445	 -2.0518	 2.74359	 1.11475
   483	 32.3105	  35.079	  11.267	-2.58553	-1.70448	-2.36815
   484	 32.3198	 33.7563	 10.7822	-1.48896	-0.129908	0.400184
   485	 33.4601	 32.9527	 11.1803	-1.83827	-0.725089	-1.67311
   486	 34.1352	 33.2625	 12.4232	-3.39723	-1.06675	-1.54064