ITEM: TIMESTEP
0.0644402
ITEM: NUMBER OF ATOMS
1200
ITEM: BOX BOUNDS
0	40
0	40
0	40
ITEM: ATOMS index type x y z
     1	 9.70903	 20.5975	 29.8557	-0.833246	-1.49916	  3.5885
     2	 10.3538	 20.9455	 31.0279	 1.29164	-0.819643	 1.79278
     3	  10.725	 19.8006	  31.836	-0.400259	-3.87357	 2.17017
     4	 10.9186	 18.5723	 31.2848	-1.90727	-0.208483	-0.804036
     5	 10.3778	 18.3146	 30.0446	-1.50518	-1.68734	 2.28968
     6	 9.94552	 19.4004	 29.2479	-0.363864	 1.02929	-0.45555
     7	 10.0433	 21.7468	 31.6456	-1.27766	-5.00716	 5.79012
     8	 10.0649	 19.4026	   28.19	 10.4203	-2.55928	 6.45208
     9	 11.3658	 20.1931	 32.6693	-8.50483	  2.8458	-6.75092
    10	 10.9793	 17.6487	 29.4114	 5.53192	 5.34137	-1.69795
    11	 11.3832	 17.7327	 31.7904	-5.67689	-9.50276	 6.45271
    12	  9.3082	 21.4262	 29.2936	  1.5565	-5.38636	0.137656
    13	 38.8174	 33.2496	 33.1718	 1.06832	-3.26507	 2.02375
    14	  39.241	 34.3277	 33.9112	-0.130537	0.230208	 1.54608
    15	 38.5581	 35.5832	 33.6873	0.162179	 1.12564	 2.61927
    16	 37.6884	  35.766	  32.671	-1.38383	0.319265	-1.61313
    17	 37.3542	 34.5858	 31.9198	-0.667028	-2.92341	-1.23857
    18	 37.8365	 33.3444	 32.1561	-1.38562	 2.37576	-1.11341
    19	 39.6149	 34.1411	 34.8947	-5.52774	 1.90142	 5.54616
    20	 37.8794	 32.6836	 31.3144	 1.21417	  10.573	 1.88654
    21	 39.2668	 36.3877	 34.0284	 1.05454	 1.53174	-0.941659
    22	 36.6108	 34.8147	 31.1396	0.448904	 5.20914	 2.18433
    23	 37.4081	 36.7248	 32.2394	-5.37788	-10.7844	-1.31615
    24	 39.2767	 32.2799	 33.2104	 2.61051	-2.34292	 1.17419
    25	 39.1941	 23.4351	 37.3847	0.343783	-2.08592	 1.02818
    26	 38.9927	 24.1423	 36.1723	-1.43741	-0.704332	0.908641
    27	  39.015	 25.5053	 36.2166	-4.82445	-3.12427	 1.18671
    28	 39.4662	 26.1026	 37.4018	-1.45751	-1.03825	 1.52193
    29	  39.627	 25.4137	 38.5562	-0.415045	-1.04289	 0.52958
    30	 39.5568	 23.9877	 38.5602	 2.41625	-0.686275	0.304133
    31	  39.128	  23.575	 35.2829	 4.93857	 6.07998	-0.498359
    32	 39.5107	  23.562	 39.5332	-1.66892	 4.54953	 10.6551
    33	 39.4725	 25.9657	 35.3002	 4.13413	-13.1472	 5.20735
    34	 39.9251	 25.8489	 39.5025	 1.86633	-0.578944	 9.36392
    35	 39.8247	 27.0923	 37.1886	 1.31289	-3.05522	-5.15203
    36	 39.0005	 22.3488	  37.305	-1.66314	-2.48472	-6.70553
    37	 23.1744	 37.2197	 37.4429	0.0018884	-3.78452	0.230611
    38	 23.9588	 38.2628	 36.8638	-1.40196	0.017666	 3.12848
    39	 23.6957	 38.7859	 35.5574	-0.352201	-1.51976	-3.76554
    40	 22.3019	 38.8574	 35.3265	-2.48612	-1.04462	0.334659
    41	 21.4483	 38.0173	 35.9572	0.165577	-0.751591	-1.61094
    42	 21.7951	 37.4477	 37.2184	-3.49547	-0.301808	 2.67004
    43	 25.0107	 38.1888	 37.1506	 1.70211	 -2.0064	 2.91686
    44	 21.1896	 36.5177	 37.3472	 11.0961	 3.60128	 1.20614
    45	 24.1469	 39.7474	 35.4043	 6.89164	 7.17116	 4.86236
    46	  20.404	 37.9272	 35.8142	-2.08081	 3.60641	 -2.1701
    47	 22.0545	 39.3682	 34.3722	 -9.6022	 -9.9676	 2.10319
    48	 23.4948	 37.1674	 38.5193	 -3.4737	 5.61006	 3.71153
    49	 35.2378	 22.9578	 34.9044	-1.80947	 1.37805	 1.32368
    50	 34.6923	 21.8919	 34.2032	-0.0367035	-0.856719	0.402379
    51	 33.2623	 21.8543	 33.9996	-1.89728	-2.63082	 1.70799
    52	 32.5452	 23.0305	 34.1555	-2.55094	 1.01558	-0.161597
    53	 33.1472	 24.0635	 34.9468	 -2.7058	-0.62595	 2.46395
    54	 34.4506	 24.1088	 35.2896	0.165915	-1.07589	 1.68478
    55	 34.9866	 20.9395	 34.6745	-3.44298	 8.95164	  7.7616
    56	 34.8781	 24.8336	 35.9266	-11.7401	 1.42163	 5.05643
    57	 33.0482	  21.236	 33.1381	 6.69906	 8.11544	-4.69176
    58	 32.5742	 24.9297	 35.1529	-0.320801	 3.20627	  4.0934
    59	 31.4987	 22.8958	 34.4556	 3.66185	-2.32095	 12.5747
    60	 36.1844	 22.8725	 35.3715	-7.92077	-2.24512	  1.0289
    61	 28.7915	  28.308	 21.3117	-1.69289	-0.438411	 4.08601
    62	 27.9203	 29.3597	 21.6467	-1.85786	-0.926959	0.406621
    63	  26.587	 29.2251	 21.3464	0.704459	-2.55615	0.228256
    64	 26.2847	 28.2459	 20.3717	0.987892	-0.550183	 1.00198
    65	 27.1852	 27.2419	 19.9223	-0.714017	-2.05705	 2.56852
    66	 28.5128	 27.5466	 20.1818	-1.14878	 1.48559	 0.36688
    67	 28.3511	 30.3043	 22.0131	-7.83798	  2.8329	-7.80306
    68	 29.3323	 27.1588	 19.5675	-3.29825	  5.7856	-2.67083
    69	 25.9012	 30.0979	 21.4275	 7.50455	 6.35963	-1.42459
    70	 26.9382	 26.6328	  19.068	-9.51991	0.357281	-6.38533
    71	  25.225	  28.084	 20.3132	 2.46684	-2.54265	 4.65638
    72	  29.844	 28.5662	 21.3831	-3.35945	0.447167	-0.218573
    73	  5.9051	 26.7642	 12.8225	-1.12545	  1.2352	 2.53879
    74	 6.23705	 25.7116	 12.0226	-2.00189	-0.843132	 3.05163
    75	 6.34552	 25.9779	 10.6231	0.216088	-4.23742	 1.93243
    76	 5.90807	 27.2263	 10.1061	-0.201292	 1.21914	 1.66284
    77	 5.64185	  28.254	 10.9478	 1.40369	-2.12611	0.472981
    78	 5.45461	 27.9819	 12.2797	-0.739817	-0.685941	 1.80302
    79	 6.61591	 24.8036	 12.4249	 3.48216	-7.13905	 6.30295
    80	 5.13472	 28.6611	  13.022	-1.92073	0.261339	-14.8499
    81	 5.94735	  25.187	 10.0591	-9.43649	-5.18972	-10.2792
    82	 5.86522	 29.2902	 10.5896	 12.9945	0.627644	 6.62236
    83	  5.6524	 27.2208	 9.05995	-4.92778	-1.38159	 6.91338
    84	 5.43111	 26.4491	   13.77	-8.31672	 -2.2879	-3.52665
    85	 16.9258	  27.686	 33.2008	-3.93655	-4.19062	  2.9188
    86	 16.9881	 28.6576	 34.1421	-2.23508	-1.10879	 2.01389
    87	 18.0338	 29.6164	  34.017	-0.806702	-0.438162	0.931573
    88	 19.0351	 29.5764	 33.0083	-0.239092	-3.13963	-0.169273
    89	  18.725	 28.7253	 31.9665	-1.23156	 -1.2666	-1.34478
    90	 17.6731	 27.8698	  32.008	0.535652	 2.07033	 1.31479
    91	 16.3731	 28.6495	 35.0005	 3.02386	 3.57756	 2.40479
    92	 17.8205	 26.9631	 31.4468	-8.64477	  7.3877	 15.0544
    93	 18.3654	 30.0782	 34.9484	0.632955	-7.82333	-3.44612
    94	  19.349	 28.5794	  31.119	-5.96462	-6.61988	0.321116
    95	 19.2351	   30.62	  32.687	-10.8194	-3.17921	 -6.4663
    96	 16.6016	  26.674	 33.4754	 6.61618	-7.72366	 10.8742
    97	 21.0752	 35.6234	 20.8062	-2.55553	-1.30669	0.452234
    98	 22.3147	 35.1108	 20.4484	-1.60665	-2.33159	-0.0954148
    99	 22.4947	 34.6869	 19.1743	-2.00403	-1.48014	-1.83271
   100	 21.3413	 34.4863	 18.4168	-2.17462	-1.59844	 1.32732
   101	 20.0625	 34.9542	 18.7584	-2.60952	 1.41269	 3.01495
   102	 19.9027	 35.6168	 19.9647	-0.807081	 1.34012	-0.114476
   103	 23.0775	 35.5063	 21.0921	-4.44615	 3.91459	 8.47253
   104	 18.9844	 35.4125	 20.4874	-0.152335	-6.34828	 5.27942
   105	 23.4577	 34.5368	 18.7074	-3.73177	-2.09623	-6.95197
   106	 19.2071	 34.7206	 18.1595	 5.79823	0.473669	  10.106
   107	  21.389	 33.8309	 17.5403	-2.53381	 -6.1553	 2.10514
   108	 20.8179	 35.2436	 21.8015	-10.9192	-6.39104	-7.16672
   109	 22.2289	 29.3722	 2.90011	0.0223638	0.452838	-0.135135
   110	 23.1597	 30.0378	  2.1335	  2.9054	-1.43932	 1.07097
   111	 24.2995	 30.6356	 2.76407	-0.143174	-1.15359	 1.70661
   112	 24.4428	 30.4106	 4.10118	-0.947029	 1.82632	  2.0596
   113	 23.8377	 29.3229	 4.73923	  2.5217	-2.41661	0.0198425
   114	 22.5859	 28.9535	 4.15885	0.294968	-1.08736	-0.406038
   115	 22.8142	  30.722	 1.32661	-7.59475	0.774723	 2.11833
   116	 21.9646	 28.2183	 4.69243	-10.0127	-10.9555	-0.825113
   117	   24.96	 31.2265	 2.15059	 1.53911	-2.26602	-0.0735518
   118	 23.7285	 29.5556	 5.79595	-5.87537	 4.47164	-1.84617
   119	 25.1178	 31.0348	 4.74317	-11.8054	 1.93693	-2.03152
   120	 21.5503	 28.7028	 2.37593	 4.94181	 -3.7757	-1.84166
   121	 20.5196	0.751472	 8.62352	0.234504	-1.67075	-1.57995
   122	 21.3151	0.531403	 9.72879	0.723079	0.995877	-1.41025
   123	 20.6815	0.183413	 10.9508	-0.474083	-1.87756	0.588158
   124	 19.3438	0.403737	 11.1026	-1.45625	-1.20369	-1.36722
   125	 18.5256	0.761851	 9.99387	-1.57086	-1.96386	 1.08133
   126	 19.2047	 1.03224	 8.84652	-0.109767	-0.0612039	 2.21598
   127	 22.2798	 39.9761	 9.61753	-0.700562	-5.85074	-5.59692
   128	 18.6719	 1.64342	 8.15706	 3.83687	  4.8555	 3.51891
   129	 21.2663	 39.7697	 11.7354	 6.00329	-5.78821	-0.155115
   130	 17.7288	 1.38364	 10.2886	-1.29602	 12.3182	 5.41307
   131	 18.9306	0.600038	 12.0632	-1.44843	 7.03266	 5.66104
   132	 20.8777	 1.17919	 7.70459	-3.80724	 3.19486	 9.18482
   133	 15.8686	 22.9954	  29.612	-2.64285	0.964334	 2.16672
   134	 15.8577	 23.1387	 28.2716	 1.23552	-0.730786	0.780274
   135	 16.5208	 22.1872	 27.4631	-0.605593	-2.22885	0.512385
   136	 17.6254	 21.5372	 28.0956	-2.01819	 -1.7835	0.893979
   137	 17.7082	 21.5024	 29.4602	-0.845003	-1.19761	 -1.6172
   138	 16.8674	 22.2463	 30.3175	-0.598481	-0.812592	  1.8705
   139	  15.651	  24.111	 27.8677	 14.9084	 12.2775	-5.52855
   140	 17.3782	 22.8793	   31.04	  4.0217	 7.59579	-7.54199
   141	 16.9058	 22.6359	 26.5349	 1.72471	 6.02723	 4.81354
   142	 18.3518	 20.8937	 30.0462	-12.3531	 2.84382	 3.06726
   143	 18.4874	 21.3251	 27.4546	 2.64679	  5.2261	 8.86762
   144	 14.8914	 22.9587	 30.0814	 6.97467	-10.3949	-1.05323
   145	 15.0645	 29.6868	 18.8054	-0.69555	-2.19472	 2.42374
   146	 14.3121	 29.5723	 17.6473	-1.00458	-1.72004	0.518476
   147	 14.4705	 30.5584	 16.6467	0.638162	-1.28371	-0.497419
   148	 15.0763	 31.7276	 17.0184	-1.84481	-1.46679	 4.10255
   149	 15.8291	 31.8771	 18.2246	 -1.9031	-0.194636	 1.22656
   150	  15.937	 30.7395	 18.9823	 1.45906	-1.60426	0.315455
   151	 14.2299	 28.5925	 17.2648	 10.1427	-6.79841	-2.30036
   152	 16.2278	 30.8269	 20.0155	 -8.3373	0.205733	-0.181631
   153	 14.4423	 30.2609	 15.5874	 10.0152	-3.12734	-3.34681
   154	 16.7584	 32.3548	 17.9545	 11.8522	 1.86433	-5.70189
   155	 14.8831	 32.6462	 16.5059	-9.43521	-4.71676	 1.88271
   156	 14.5352	 29.3917	 19.7494	0.924916	 14.9717	0.379153
   157	  39.612	 28.0196	 7.28329	-4.36408	 2.92203	 1.26053
   158	 39.7017	 26.8294	 6.53405	-3.36736	-1.63541	-2.18723
   159	 39.4973	 25.5758	 7.17048	0.431424	-1.61216	0.200372
   160	 39.7244	 25.4812	 8.55754	-1.55781	 1.53971	 1.58212
   161	 39.9867	 26.6587	 9.32649	0.561705	-0.0969944	 4.26491
   162	 39.8728	 27.9436	 8.69922	0.973192	-2.03923	-1.00757
   163	 39.1337	 26.8228	 5.57348	-7.40072	-0.837206	  8.7015
   164	 39.6129	 28.7642	 9.31043	-9.66122	-5.72837	0.993562
   165	0.00652438	 24.7786	 6.58141	-6.56614	-11.6317	-0.669744
   166	 39.2735	 26.6986	 10.1878	-9.48213	  -4.827	0.231532
   167	0.159167	 24.5754	 8.94547	 8.95017	-3.38406	-7.16841
   168	 39.9386	 28.9259	 6.81947	  2.4509	-6.68905	    7.01
   169	  14.903	 35.5908	 33.2278	-0.95729	-1.43789	-0.533472
   170	 14.4252	 35.2469	 32.0028	-0.904688	-1.01484	 1.14432
   171	 13.4642	  34.221	 31.8778	-0.705944	-0.827727	-0.437643
   172	 13.0508	 33.5377	 33.0274	0.995202	0.388587	 3.26212
   173	 13.5097	 33.9725	 34.3331	-2.01051	-3.83159	-2.15708
   174	 14.4901	 34.9931	 34.4059	-0.543489	-0.080659	-0.415283
   175	 15.0666	 35.5038	 31.1776	-3.93478	-15.1275	 12.1831
   176	 14.6353	 35.5315	 35.3068	 -14.672	-0.857329	-3.36508
   177	 13.4126	  33.667	 30.9031	 4.70012	-8.88234	 2.02723
   178	  13.815	 33.0971	 34.9489	-3.19812	-7.62241	  4.9223
   179	 12.0348	 33.2597	 32.9935	-6.84585	 8.86035	-1.92292
   180	 15.3485	 36.5591	 33.3393	-6.12941	0.726791	-0.737429
   181	 25.5794	 6.32389	 33.7263	-4.10498	-1.79298	-0.483096
   182	 25.8911	  7.6363	 33.8698	-1.10179	-0.334358	-0.557127
   183	    25.6	 8.26751	 35.1251	-0.88632	-0.165164	 3.06497
   184	 24.6968	 7.61465	 35.9712	-3.13204	0.727034	-0.553314
   185	 24.7171	 6.24565	 36.0132	-0.806683	-1.31223	 3.80696
   186	 25.1396	 5.59055	 34.8122	0.0351849	-1.89505	0.943371
   187	 26.5795	 8.17195	 33.2135	 1.79914	-2.08514	-0.163315
   188	 24.6358	 4.62836	 34.6008	-3.91955	-2.12663	-7.56103
   189	 25.2571	  9.2985	 34.9223	-7.01331	-8.16125	 9.63122
   190	 23.7706	 5.86132	  36.436	-11.1027	-0.73765	 4.41621
   191	 24.2972	 8.13041	 36.8546	-4.84355	-0.841268	0.576026
   192	 26.1305	 5.85967	 32.9082	-0.464101	 10.5984	 4.61766
   193	 28.9288	 29.6921	 38.0893	0.891493	-0.331321	 1.95723
   194	 28.4319	 30.9547	 37.6428	-0.112931	-0.195987	-0.511327
   195	 28.8236	 32.1151	 38.2126	-2.26996	-0.396512	0.847049
   196	 29.9625	 32.0335	  39.047	-1.79165	0.638885	0.0722122
   197	 30.6231	 30.8387	  39.331	 0.53781	 2.06702	0.326738
   198	 30.0605	 29.6613	 38.8783	0.246468	-1.45266	 1.09497
   199	 27.3244	 30.7928	 37.5005	 6.71352	-0.790288	 11.6226
   200	 30.7027	 28.8027	 38.7151	 4.54405	 3.39657	-6.41317
   201	 28.5116	 33.0932	 37.9918	 -2.6091	-5.85768	 -11.251
   202	 31.5205	 30.8882	 39.9204	  2.1747	-2.58347	-0.388621
   203	 30.5114	 32.9603	 39.0829	-7.82038	 6.78463	-11.0248
   204	 28.3497	 28.7969	 37.9022	-11.9129	-1.32608	0.236385
   205	 28.1727	 8.66884	 39.1333	-3.33824	-2.68973	-1.02753
   206	 28.7739	 9.86286	 39.3624	-0.649436	-1.46801	 1.42384
   207	 28.0218	  11.078	   39.54	-0.702286	0.0626768	0.589187
   208	 26.6344	  10.762	 39.7929	 1.99975	-2.35831	0.0335795
   209	 26.0506	 9.53904	  39.782	-1.01519	 2.14883	 1.83158
   210	 26.8625	 8.44762	 39.5066	-1.69864	 2.47257	  1.8808
   211	 29.8271	 9.88084	 39.3881	 2.58097	 5.17424	 5.92424
   212	 26.5506	 7.44377	 39.6003	 10.9875	-4.31022	 1.33701
   213	 28.3973	 11.7205	 0.32983	-2.02558	 -13.075	 3.60269
   214	  25.061	  9.3653	 39.3348	 4.95699	0.419336	-7.70541
   215	 25.9365	 11.5704	 39.8964	 2.44343	 12.1344	-2.77166
   216	 28.7181	 7.81971	 38.6589	-6.41609	0.876644	-4.47071
   217	 18.2245	  5.4156	 2.15492	-3.69528	-0.168567	0.406773
   218	 16.8122	 5.71958	 2.18582	0.0731141	-1.35938	0.902353
   219	 16.5248	 7.04176	 2.30317	-3.08231	0.208616	  3.4862
   220	 17.5551	 7.97731	 2.32508	-0.100238	-0.181734	 3.34977
   221	 18.9084	 7.65363	 2.27909	  0.2305	 1.26333	 3.45491
   222	 19.2229	 6.33033	 2.18256	-1.60424	0.314646	  1.3969
   223	 16.3571	 4.97978	  2.8163	 1.14561	 2.17706	 10.0015
   224	 20.2739	 6.12226	 2.26954	 2.60566	 6.88373	  2.6237
   225	 15.4736	 7.39424	 2.38005	 -8.1787	-6.42341	-1.41207
   226	 19.4415	  8.3872	 1.71352	-6.54051	 3.78614	-7.11577
   227	 17.2753	 8.86077	 1.77431	-10.0575	 2.50656	-7.87991
   228	 18.4002	 4.31625	  2.2332	-6.62011	 2.80278	0.606331
   229	  4.1003	 23.7775	 18.5236	-1.07441	-1.09423	-0.635713
   230	 4.02825	  22.374	 18.3977	-1.33001	-0.886869	  5.7296
   231	  2.9213	 21.9193	 17.7457	-0.542213	-1.36177	-0.730625
   232	 1.64097	   22.44	 17.9756	 -3.2828	0.234556	 1.52748
   233	 1.73036	 23.8574	 18.2719	-0.910731	 2.53814	0.968505
   234	 2.90399	 24.4727	 18.5776	-0.852155	-0.474563	-0.378575
   235	 4.93958	   21.83	 18.4429	-5.98864	-2.18475	   5.189
   236	  2.7918	 25.2087	 19.3687	 -2.1129	-7.07331	 4.93114
   237	  3.0095	  21.002	 17.2132	-2.29416	-2.03207	-5.70246
   238	0.751522	 24.2019	 18.4561	 -6.9399	-1.36489	 4.63356
   239	 1.07304	 22.3664	 17.0313	 10.3255	-3.31155	-2.70704
   240	 4.97867	 24.1832	 18.9954	-1.53765	-12.2362	  4.6812
   241	0.745119	 14.7798	 29.0293	 1.49366	-0.116104	 3.74993
   242	 1.84044	  14.048	 29.5316	-0.564609	 1.18974	-0.870667
   243	 2.73602	 14.7777	 30.3033	 -2.5535	0.112098	 1.15297
   244	 2.70002	 16.1579	 30.2484	-0.701627	-0.458726	 2.40956
   245	 1.70468	 16.8836	  29.599	-1.43149	-0.414509	 2.95827
   246	0.713703	 16.2223	 28.9607	-1.89411	-0.0670287	 2.12265
   247	  1.6641	 13.0826	 30.0291	-5.15445	-3.18538	 10.0663
   248	 39.8512	 16.6416	 28.4857	-0.459609	-2.55754	 7.41487
   249	 3.60017	 14.3666	  30.752	0.111726	 7.76383	-0.562516
   250	 1.94725	 17.9029	 29.4708	  11.696	-4.90463	 4.08022
   251	 3.65039	 16.7034	 30.4707	-2.95462	-3.07477	 5.34473
   252	0.544941	 14.4132	 28.0173	 10.9556	-8.50536	-3.17585
   253	 22.7104	 17.5947	 11.7421	-0.988691	-2.62719	  1.0722
   254	 23.9064	 18.3144	 11.7525	0.0609947	-3.06674	-0.350926
   255	 24.9616	 17.8451	 12.5412	-2.45529	 1.85547	-1.19274
   256	 24.8869	 16.5666	 13.0795	 1.09176	-0.623769	 1.86651
   257	 23.7293	 15.7547	 12.9879	 1.34131	 -1.4423	 2.07467
   258	 22.6322	 16.2942	 12.3503	 1.01289	0.315734	   1.936
   259	  23.915	 19.3471	 11.5313	-0.121155	 4.42512	0.788409
   260	 21.9651	 15.6863	  11.762	 3.52635	 1.54393	-12.2491
   261	  25.618	  18.503	 13.0595	-4.10929	 4.26212	 11.6499
   262	 23.7795	 14.6987	  13.159	 4.66367	 7.61686	-5.45998
   263	 25.7978	 16.0373	 13.3367	-3.82335	-5.97817	-2.22312
   264	 21.8484	 17.9452	 11.2472	-5.24408	 -7.0189	 1.62716
   265	  10.792	 12.4585	 23.1745	-2.36939	 -1.1674	 1.48252
   266	 12.1633	 12.4739	 23.2474	-0.982556	-1.24463	 2.67829
   267	  12.999	  13.539	 23.2059	-0.979527	-0.756193	 1.48372
   268	 12.3985	 14.8036	 23.0732	-0.722815	0.333687	-1.00046
   269	 10.9719	 14.8868	 23.2138	-2.61619	-1.91547	 1.33917
   270	 10.1931	 13.7731	 23.2864	-1.67575	-1.80271	  2.7407
   271	 12.6209	 11.4687	 23.2486	-4.50692	0.725805	 2.76465
   272	 9.13437	 13.7669	 23.3438	 2.86417	-1.35185	 3.26464
   273	 14.0884	 13.4648	 23.2755	-3.17667	 3.31644	 2.13259
   274	 10.4721	 15.8038	 23.0389	 -2.1836	-3.68255	-1.66953
   275	   12.85	 15.7006	 23.4312	-2.99034	-0.633153	  4.7368
   276	 10.2619	 11.7028	 22.6404	  1.4537	 1.69771	-6.15205
   277	 4.41387	 36.2677	 18.2738	-2.71613	0.798855	 2.70461
   278	 3.23801	 35.6216	  18.482	 -4.0058	-1.20081	-0.517429
   279	 2.89702	 35.4407	 19.8769	  -2.031	-2.09469	-5.75321
   280	 3.70211	 36.0431	 20.8157	  -1.578	-1.02401	  1.9537
   281	 4.89782	 36.6516	  20.555	-2.04216	-2.23095	 1.17841
   282	 5.17787	 36.9279	 19.1772	-2.83928	0.856977	-0.737187
   283	 2.96346	 34.7167	 17.9024	 5.17401	 1.54269	 7.82587
   284	 6.04532	 37.4794	 18.9052	-6.38788	-2.17371	-1.81922
   285	 2.00903	 34.9189	    20.1	-9.73649	-5.65906	  3.6181
   286	  5.5456	 37.1055	 21.2719	 3.87595	 1.97563	-6.06983
   287	 3.41117	 36.0094	 21.8915	 1.01086	  1.2724	 7.94078
   288	  4.9056	 35.9585	  17.358	 13.0814	-1.86521	-0.985952
   289	 21.6756	 2.51671	 27.6408	-0.0509293	-0.431303	-0.217043
   290	 23.1213	 2.58338	 27.6742	-3.54079	-1.06682	0.790771
   291	   23.76	 3.79523	  27.621	-1.38566	-0.433619	-0.596503
   292	 23.0653	 5.02099	 27.6854	-1.49577	-0.912964	0.956193
   293	 21.6882	 4.98255	  27.762	-0.862316	0.352553	 1.99377
   294	 21.0566	 3.74645	 27.7166	-2.46172	-0.859883	 1.31727
   295	 23.4885	  1.7187	 27.0703	 3.77398	-1.00749	-12.2818
   296	 20.0681	 3.67435	 28.1618	  2.1319	-1.13847	 8.58877
   297	 24.8346	 3.87727	 27.4165	 -8.0197	 4.14527	-2.52265
   298	 21.2652	 5.88133	  27.338	-6.73258	-4.42885	-6.22227
   299	 23.5808	 5.93907	 27.3871	 1.24889	-3.09612	-4.82268
   300	 21.3451	  1.6433	 28.1206	 1.59069	0.989947	 10.0068
   301	 20.4678	 34.6303	 7.97728	-2.90531	-0.327359	 1.42061
   302	 19.4877	 35.0666	 8.94354	 2.90625	-4.50145	-2.29238
   303	 19.1349	   36.39	 9.02061	-2.25623	-0.767944	  1.0653
   304	  19.406	 37.2721	 8.02591	-2.58154	-0.384022	-0.77593
   305	 20.3011	 36.7797	  7.0135	-3.92943	 0.91153	 1.90612
   306	 20.7516	 35.4977	 6.89334	-1.11267	-1.44934	 1.07444
   307	 19.7855	 34.6796	 9.89097	 -2.3713	-0.496011	 4.49548
   308	 21.0411	 35.0437	 5.98642	 -7.9946	-4.63281	-4.36815
   309	 18.5184	 36.6128	  9.8431	-0.746056	-3.09855	0.0177468
   310	 20.5142	 37.3665	  6.1556	-5.31784	 3.51963	 -2.4097
   311	 19.6451	 38.3332	 8.18397	 5.07957	-6.37373	 3.19073
   312	 21.0706	 33.8004	  8.2188	 5.91274	 7.16041	0.665511
   313	 32.9487	 20.0049	 23.7703	-0.568512	0.459174	 2.46595
   314	 31.9781	  19.123	 23.2231	-1.05206	-2.06887	 1.15526
   315	  31.601	 19.4116	  21.936	-1.77552	 2.84577	-0.146431
   316	 32.5064	 20.0368	 21.1393	 1.30378	-0.597514	-0.0582191
   317	   33.53	 20.8988	 21.5959	 -0.3668	-0.0278113	-1.24547
   318	 33.7594	 20.8005	 22.9964	 0.80724	0.0762095	 2.43686
   319	 31.3907	 18.5343	  23.871	  1.9615	 2.56629	 11.2169
   320	  34.063	 21.8109	 23.3743	-8.70541	 5.50668	-3.09578
   321	 30.8825	 18.7784	 21.3934	-3.17832	-7.67024	 11.2043
   322	 34.3927	 21.0179	 20.9314	 2.43322	-11.0719	 9.03265
   323	 32.2785	 20.1327	 20.0548	-2.30318	-3.80394	 5.26796
   324	 32.9944	 20.0154	 24.8742	-2.26542	 2.98432	 7.79091
   325	 4.72984	 3.94498	 39.8553	-4.21199	-0.0235545	-2.33261
   326	 6.00252	 4.52618	0.176025	-2.28463	-2.84035	  2.5831
   327	  7.1993	 3.76271	0.107718	-1.94699	-0.826848	 1.30088
   328	 7.08905	 2.42552	 39.9612	-0.043164	-0.468171	0.189473
   329	 5.83186	 1.86342	 0.11637	-1.18037	-0.0262594	 1.89506
   330	 4.61825	 2.59523	0.0843382	-1.91393	 2.19341	   1.029
   331	 6.04191	 5.59649	0.0396196	-2.39465	-3.07889	-0.0924694
   332	 3.67272	 2.10382	0.201176	 -1.0349	-1.75125	 3.25007
   333	 8.10166	 4.31814	0.262013	-4.66734	-0.108408	 4.78519
   334	 5.73482	0.791154	0.0547792	-7.89694	-5.71256	0.266043
   335	 7.85646	 1.77973	 39.5568	-0.939973	 0.88495	-9.24831
   336	 3.89909	 4.64788	0.0353675	 1.63973	 6.69504	 4.20477
   337	 6.39448	 8.91153	 4.52985	-3.08689	-2.74724	  1.5845
   338	 6.61484	  10.266	 4.63601	-3.21406	-0.425363	 1.09704
   339	 7.85435	 10.7344	 4.96466	-2.72434	0.126229	-3.52042
   340	 8.71744	 9.88127	 5.61292	-1.57664	-0.388419	0.960405
   341	  8.5026	 8.50671	 5.60566	-0.514432	-1.06614	 1.77017
   342	 7.31918	 8.05203	 5.04574	-2.43041	-0.0850941	 2.23197
   343	 6.19594	 10.8987	 3.81182	 7.87555	-0.206924	 2.23499
   344	  7.2643	 6.97652	 5.00563	-3.23363	 3.97371	-1.35221
   345	 7.87557	  11.764	 5.29953	-5.47425	 2.60041	 3.04005
   346	 9.34922	  7.8403	 5.51466	 1.72133	  -11.81	-4.99483
   347	 8.99565	 10.2584	 6.59507	-13.8659	 2.72681	  9.6136
   348	 5.33254	 8.67626	 4.49038	 -6.0606	-1.56176	 8.38459
   349	 35.8131	 23.2562	 24.7382	-4.79075	-1.68458	 1.85907
   350	 34.9943	 22.7664	  25.701	-2.56567	0.0239479	-0.388582
   351	 35.4089	 21.7104	 26.5203	-3.47173	-0.853008	 4.56106
   352	 36.6739	 21.2086	 26.2881	-1.84304	-2.47459	0.264785
   353	  37.668	 21.9123	 25.5195	-0.217923	 1.62479	 1.51347
   354	 37.1158	 22.7831	 24.5011	0.770809	 4.08215	 1.84754
   355	 33.9306	 23.0702	 25.7788	-0.0721553	 -7.5357	  4.8271
   356	 37.8506	 23.6375	 24.4175	0.283548	 2.62068	 -9.7065
   357	 35.3635	 22.0861	 27.5728	 5.94238	-1.41873	 4.99292
   358	 38.3656	 21.1703	 25.0801	 -10.391	-1.66122	 1.36512
   359	  37.193	 20.5976	   27.07	  9.3686	-6.86362	-6.66478
   360	  35.448	 24.0498	 24.1362	-7.06547	-2.63911	 6.95965
   361	 12.1457	 13.9961	 38.8216	-1.01034	-0.371277	 3.84664
   362	 12.8386	 15.1539	 38.9206	 0.96149	 3.65842	 0.70687
   363	 14.1915	 15.1111	 39.1996	 2.28014	-1.71512	 0.78906
   364	 14.8351	 13.8559	 39.2421	-0.503956	-0.863029	0.938843
   365	 14.1183	 12.7076	 39.2237	-3.23092	-1.67918	 4.86522
   366	 12.7798	 12.8028	 38.8285	-1.92864	0.115443	 3.66176
   367	 12.3082	 16.0596	 38.9988	-3.09864	 2.53445	 1.98331
   368	 12.1659	 11.8736	 38.7364	-4.18495	 5.11691	 6.21835
   369	 14.7658	 16.0251	 39.3106	-3.24063	 9.12427	-2.76642
   370	 14.5842	 11.7509	 39.3263	  2.1891	-4.27433	 6.98558
   371	 15.9013	 13.9055	 39.1372	-5.15107	-5.72044	-4.52919
   372	 11.0909	 14.1579	 38.6589	 1.39464	-7.26339	 4.60778
   373	 39.0175	 33.9434	 2.10967	-0.458078	-1.04955	  3.6817
   374	 39.0413	 32.5489	 2.27261	-2.08129	-1.92266	 2.22664
   375	 37.7205	 31.9935	 2.10083	-1.22093	0.0353667	-3.54879
   376	 36.5816	  32.665	 2.47673	-2.49334	-2.83425	 2.97187
   377	 36.5788	  34.052	 2.05906	-1.26892	-0.183774	0.596986
   378	 37.7901	 34.6808	 2.02928	-1.48936	0.247277	 2.46167
   379	 39.7045	 31.9799	 1.66222	  3.1459	 1.05681	 -10.657
   380	 37.9223	 35.7386	   1.882	 1.69325	-0.776506	 5.08366
   381	 37.7422	 30.9502	 2.39567	-0.108543	-2.97108	-1.50874
   382	 35.6604	 34.3884	 1.67553	 6.07255	 1.09161	-7.72582
   383	 35.6541	 32.2451	 2.02422	 2.29102	-1.50864	-5.89713
   384	 39.9137	   34.51	 2.06827	-1.93113	-7.13143	 6.59261
   385	 27.5382	 33.9543	 15.3488	-3.06446	-0.864572	 2.71225
   386	 26.3764	 33.9794	 16.0344	-0.815935	-0.613244	0.143563
   387	 25.8213	  32.772	 16.4431	 1.46056	-1.93341	 1.03168
   388	 26.2296	 31.6646	  15.659	0.389378	0.397118	-0.437516
   389	 27.5084	 31.6135	 15.0057	-0.863085	-2.12553	  3.0689
   390	 28.0321	  32.854	 14.7173	 -1.5987	-1.19851	 1.63735
   391	 25.7929	 34.9314	 16.1928	 5.74113	-10.1481	-9.05809
   392	 29.1124	 32.8688	 14.5735	 1.17357	-3.73339	 8.70716
   393	  24.744	 32.7929	 16.5658	-4.07749	  2.3552	-6.63291
   394	 27.8532	 30.6888	  14.622	-7.05847	-9.44238	 2.98416
   395	 26.2039	 30.7899	 16.3149	 11.1788	-7.78838	 1.51549
   396	 28.2097	 34.7744	 15.4358	 2.82398	-2.39925	 6.86863
   397	 10.1222	 38.7133	 24.6536	-3.67508	-0.675074	0.602546
   398	 10.2761	 38.3438	 26.0131	-0.705352	 -1.7818	0.754919
   399	 11.4397	 38.6583	 26.6885	-2.12038	-0.585708	0.873902
   400	 12.6618	 39.0511	 26.1091	0.639697	-2.82017	 3.71861
   401	 12.4854	 39.5363	  24.766	-2.35874	0.072283	0.473733
   402	 11.3276	 39.1213	 24.0618	0.134898	-0.703552	 1.68761
   403	 9.41942	  37.947	 26.5583	 1.24549	-1.72243	  4.2451
   404	 11.2799	 39.4856	 23.0171	 1.67923	 1.58106	 2.08945
   405	 11.5447	 38.0383	 27.6177	 13.5147	 -8.8391	 6.15032
   406	 13.3582	 39.2579	  24.106	 9.38441	-7.21138	-2.00322
   407	 13.1575	  39.836	 26.6813	-9.37915	 9.52462	 6.65532
   408	 9.38072	 38.1606	 24.0999	 5.22606	-4.55127	-0.38611
   409	 27.5095	 37.3517	 11.8761	-2.32367	-0.0579171	-1.42055
   410	 28.1781	 37.7213	 10.6814	-2.06129	 -2.9743	-1.29909
   411	 29.0488	 38.7824	 10.8388	 -1.4334	0.349177	 0.33284
   412	 29.5619	 39.1322	 12.1441	-1.72955	0.130548	-3.99048
   413	 28.9145	  38.654	 13.2253	-1.07139	0.0535962	 1.01372
   414	  27.843	 37.7078	 13.1563	-0.957176	-0.394103	 1.86998
   415	 27.6163	 37.5655	 9.74385	-2.99854	 2.54288	 6.37156
   416	 27.0811	 37.8978	 13.8973	-11.9742	 11.9279	-0.251801
   417	 29.9564	  38.617	 10.1923	-8.45677	-10.8268	-3.15055
   418	 29.2255	 38.7454	 14.2438	-2.94006	-1.05618	-11.9651
   419	 30.5982	 39.4972	 12.1317	 2.03308	-8.47201	-2.50336
   420	 26.7179	 36.6162	 11.8264	 1.29706	 1.57858	-1.22798
   421	 11.9345	 31.9658	 9.08929	-0.977438	-3.58376	 1.52006
   422	 11.7167	 30.6768	 9.41826	-2.79577	 -2.5608	-0.532999
   423	 11.5223	 30.3622	 10.8218	 -3.2583	   -1.59	 1.56299
   424	 11.7093	 31.2848	 11.8192	 1.00044	-1.48507	 3.88063
   425	 11.6114	 32.6393	 11.4434	-0.823418	-1.57403	 2.16224
   426	 11.6685	 32.9426	 10.0858	-1.67879	-0.621832	0.948031
   427	  11.722	 29.8348	 8.76506	-4.69647	-3.78508	 2.03266
   428	  12.075	 33.9529	  9.7903	 4.41094	  -1.069	-5.34205
   429	 11.4446	 29.2762	 11.0295	-4.59858	0.648744	 7.06839
   430	 11.8697	 33.3667	 12.2006	 4.92174	-6.08274	-2.52123
   431	 12.2759	 31.1419	 12.7003	 11.2828	-4.10366	-9.09484
   432	 12.4221	 32.2304	 8.17122	 3.44559	-0.486757	 10.0363
   433	 30.4681	 29.3072	 9.65755	 1.66596	-0.954127	 2.94192
   434	 31.3609	 28.4905	 9.02588	-1.61716	0.865459	0.500751
   435	 31.3815	 27.1223	  9.4959	-2.14948	-1.48849	-0.739963
   436	 30.6459	 26.6282	 10.5436	-0.78672	-1.51414	 3.83795
   437	 29.6039	 27.4111	 10.9831	0.0162677	-2.20112	 2.73629
   438	 29.5205	 28.6903	 10.5233	0.214775	-2.00968	 2.11191
   439	 32.4029	 28.8245	 9.10277	 3.89127	 7.15635	 10.3091
   440	 28.9606	 29.4011	 11.1296	 4.88384	-1.33689	 5.39428
   441	 32.0652	 26.5215	 8.91693	-4.47425	-0.342593	-2.98422
   442	 28.6165	 26.9646	 11.1819	-1.28813	-3.42867	-7.44487
   443	 30.5938	 25.5648	 10.7938	0.065443	  2.4069	-3.25668
   444	 30.1025	 30.2213	 9.26834	-2.84188	-0.846572	-4.22426
   445	 16.7135	 20.1594	 22.0225	0.132792	0.413814	 3.59969
   446	 17.8715	 20.9077	 22.0188	-3.24952	-0.936618	 3.47485
   447	 17.9789	 22.1175	 22.6722	-1.89616	  -1.605	-0.428243
   448	 17.0689	 22.3865	 23.7088	-1.59718	-0.716718	 3.80958
   449	 15.8974	 21.6272	 23.6519	-3.13297	-2.15444	-0.469229
   450	  15.813	 20.3779	 23.0315	-2.20743	-3.71928	 2.30358
   451	 18.7846	 20.4219	 21.8114	-3.88699	-7.06654	 14.5341
   452	 15.5287	 19.5858	 23.6871	 16.7223	-1.25256	 3.96963
   453	 18.9288	 22.5848	 22.6244	-6.11245	-2.05657	 9.70381
   454	 15.2379	 21.8784	 24.4415	 2.80612	-7.66512	-4.18876
   455	 16.8724	 23.4117	 24.0102	 -5.2006	 3.56616	-6.03155
   456	 16.6129	 19.3326	 21.3243	 7.57459	-0.403545	-2.95872
   457	 15.1866	 16.5867	 11.4568	 1.94565	-1.79942	 1.54617
   458	 16.4094	 17.1362	  11.749	 1.52931	-1.02295	-3.27564
   459	  17.319	  17.739	  10.816	0.0208112	0.823689	0.395356
   460	 17.1065	 17.2754	 9.51083	-1.26538	-3.69473	-2.50406
   461	 15.8662	 16.6776	 9.14387	0.280033	-2.46325	 1.48705
   462	 14.9321	 16.3612	 10.0768	-2.03927	-3.12913	-0.496948
   463	  16.762	 17.2471	 12.7836	-4.56298	-6.31724	 2.36894
   464	 13.8647	 16.3133	 9.75958	 1.77326	 5.02639	 6.87666
   465	 18.3609	 17.5161	 11.1714	 2.98872	-5.48673	-2.29774
   466	 15.6268	 16.5005	 8.13337	 4.30349	0.709156	 5.57394
   467	 17.4742	 17.8205	 8.68941	-1.65106	 11.5424	 8.89537
   468	 14.3855	 16.5353	 12.1745	-9.69303	0.00989875	  1.5286
   469	 20.7314	 19.7265	 38.7093	-1.26424	-2.16558	0.317828
   470	 22.0326	 20.2571	  38.599	 2.46389	-1.44199	 2.09409
   471	 22.2156	  21.547	 39.0258	 0.52093	0.353156	 3.00578
   472	 21.1948	  22.322	 39.6189	-0.420356	 1.66581	 4.35118
   473	 19.8867	 21.8751	 39.5475	-1.29607	 1.94929	 0.12956
   474	 19.6965	   20.48	 39.2327	-0.525004	 1.28992	 1.88302
   475	 22.4345	 19.9184	 37.6173	-5.10273	 9.34546	-1.86424
   476	 18.7419	 20.0427	 39.3601	-2.65377	-4.47246	0.756978
   477	 23.1199	 22.0893	 38.7355	-5.94653	-3.77085	 1.09296
   478	 19.3262	  22.252	0.403998	0.159175	-1.95659	 8.27757
   479	 21.2432	 23.3971	 39.5314	0.395017	 3.66293	-2.60867
   480	 20.3972	  19.005	 37.9569	-2.82627	 12.2154	 7.29512
   481	 35.1868	 34.8091	 12.5603	 -1.7221	 2.33522	 1.98517
   482	 33.9289	 35.4442	 12.5897	-0.387627	-0.357744	0.708336
   483	 33.0557	 35.0764	  11.596	 -1.8175	 0.75126	-0.760048
   484	 33.2359	 33.9603	 10.7916	-3.31021	-1.17072	-0.799345
   485	 34.4397	 33.2298	 10.7802	-2.27625	-2.24291	0.870231
   486	  35.301	 33.6446	 11.8381	-1.96574	-3.56331	 2.56888