ITEM: TIMESTEP
0.00427742
ITEM: NUMBER OF ATOMS
1200
ITEM: BOX BOUNDS
0	40
0	40
0	40
ITEM: ATOMS index type x y z
     1	 9.77681	 20.6798	  29.695	-0.746872	-0.74238	 3.51354
     2	 10.2623	 20.9858	 30.9491	0.549052	-0.745829	-1.13666
     3	 10.8609	 19.9834	   31.74	-1.43577	-3.64196	 3.27144
     4	 10.9878	 18.6992	 31.2282	-1.68595	-1.13134	0.972645
     5	 10.5083	 18.3853	 29.9539	-1.79279	-2.97477	0.916082
     6	 9.91137	 19.3936	 29.1856	0.553033	 1.07125	 1.78821
     7	 10.1567	 22.0031	 31.3834	-0.779594	 1.18214	 8.97014
     8	 9.56756	 19.1976	 28.2005	 7.61322	 10.8834	 3.39322
     9	 11.2449	 20.2131	 32.7001	 1.15428	-5.35821	-4.17713
    10	 10.6528	 17.3872	 29.5742	  8.5962	-0.426105	 3.31875
    11	 11.4595	 17.9214	 31.7945	-1.98599	-2.48686	-7.12554
    12	 9.29619	 21.4341	 29.0658	-2.52633	-4.88261	-2.85768
    13	 38.8465	 33.2407	 33.0928	-0.438285	0.906359	 1.61063
    14	  39.244	 34.3308	 33.8588	 -1.4037	0.430649	-0.510583
    15	 38.6818	  35.591	 33.6452	-2.38144	0.705967	0.509175
    16	 37.7335	 35.7465	 32.6535	0.817569	-3.39502	 1.28634
    17	 37.3221	 34.6825	 31.8736	-0.679693	 1.76307	0.366616
    18	 37.8795	 33.3996	 32.1113	-1.04375	-3.59977	  4.7458
    19	 39.9722	 34.1764	 34.6457	-6.48853	-3.89046	 2.26748
    20	  37.597	 32.5936	 31.4898	 6.78584	 5.74237	0.879272
    21	 39.0312	 36.4182	 34.2389	 5.65722	-3.70379	-1.88853
    22	 36.5762	  34.808	 31.0964	0.0437419	-0.471239	-0.147397
    23	 37.2955	 36.7371	 32.4439	 0.12695	-1.15449	-7.73983
    24	 39.2847	 32.2968	 33.2659	 7.53732	-6.09018	 4.93812
    25	 39.1523	 23.4715	 37.2897	 0.54559	-1.52188	 1.79242
    26	 39.0749	 24.2188	 36.1165	-1.18192	-1.21189	 2.69135
    27	 39.2816	 25.5986	 36.1403	-3.59406	-0.551204	0.530185
    28	 39.5754	   26.22	  37.346	-2.25414	-2.80273	-0.466653
    29	 39.6542	 25.4788	 38.5339	-0.151913	-1.17201	  1.8443
    30	 39.4448	 24.1029	 38.4925	 1.76036	-0.679581	0.719201
    31	  38.873	  23.748	 35.1614	 4.20515	 3.74896	-0.131857
    32	  39.498	 23.5352	 39.4165	  1.4083	 1.68507	 2.21388
    33	 39.2316	 26.1614	 35.1967	-2.42293	-4.80924	-5.90633
    34	 39.8831	 26.0045	 39.4409	-1.35198	-2.98436	-10.6164
    35	 39.7604	 27.2695	 37.3958	0.773472	-17.4057	 10.7098
    36	 38.9816	 22.4148	 37.2428	0.370308	 2.27949	 -2.8406
    37	 23.2344	 37.4133	 37.4677	 1.32177	-1.60864	 -1.1789
    38	 24.1256	 38.2227	 36.7783	-2.42159	 1.02489	 0.90417
    39	 23.7051	 38.9475	 35.6811	-0.700769	-4.10034	0.0312088
    40	 22.3713	 38.9202	 35.2785	-0.397014	0.286997	-0.595292
    41	   21.47	 38.1143	  35.981	 1.40163	-2.03771	0.936676
    42	 21.8697	 37.3676	 37.0868	-5.52378	-0.972143	 2.42361
    43	 25.1753	 38.2599	 37.0833	0.0705659	 1.85677	-1.33255
    44	  21.165	 36.7676	 37.5908	 6.43343	 6.69998	-6.53428
    45	 24.3722	 39.5744	 35.1667	-10.2341	-2.71171	 6.71566
    46	 20.3982	 38.0818	 35.6511	0.942417	-4.47208	 3.08228
    47	 22.0363	 39.4932	  34.425	-0.854421	-2.28983	-0.471506
    48	 23.5174	 36.8467	 38.3287	-6.70181	 9.19767	-7.11008
    49	 35.3322	 22.9415	 34.8551	-2.20552	-0.0608318	0.600495
    50	 34.7327	 21.8645	 34.2073	 -1.0013	 1.28292	0.0812244
    51	 33.3752	 21.9141	 33.8672	-2.17387	-0.377735	 1.99543
    52	 32.6388	 23.0565	 34.1611	0.197574	 1.63122	 2.03534
    53	 33.2262	 24.1216	 34.8014	-2.30166	-3.12437	 1.03527
    54	 34.5763	 24.0787	 35.1529	-2.26404	-0.297132	 1.85675
    55	 35.3238	 20.9569	 34.0298	-9.19726	 1.30257	 11.3119
    56	  35.039	 24.9223	 35.6651	-3.27048	-0.175303	 4.45631
    57	 32.9345	  21.065	 33.3762	 3.37915	-1.40123	 4.26531
    58	 32.6613	 25.0158	 35.0396	 2.09094	 -11.253	-1.42083
    59	 31.5458	 23.0887	 33.9005	-9.39701	-1.69853	 4.08264
    60	 36.3594	 22.9075	 35.1364	 9.12992	 1.41582	  7.6175
    61	  28.916	 28.4541	 21.1178	-4.43134	-1.15323	 4.17192
    62	 27.9927	 29.3497	 21.6265	0.017025	0.300247	0.262609
    63	 26.6542	 29.2533	 21.2382	-1.35959	 -1.3387	0.979496
    64	 26.2687	 28.2832	 20.3251	 1.10938	-0.181878	  1.4346
    65	 27.1961	 27.3895	 19.8029	-1.61133	-1.98657	  2.0735
    66	 28.5461	 27.4845	 20.1817	 1.66504	-0.106706	-0.764646
    67	 28.2926	 30.1327	 22.3255	-2.90692	 6.23778	-2.91576
    68	 29.2823	 26.8128	 19.7576	 2.64792	 4.39316	-4.29123
    69	 25.9696	 29.9611	 21.6487	 9.95982	 2.58841	 1.33628
    70	 26.8848	 26.6278	 19.0716	-1.91631	-2.37842	-1.95705
    71	 25.2029	 28.1942	 20.0186	 -4.4552	-5.10489	 1.08603
    72	 29.9883	 28.5139	 21.3945	-6.77309	0.636595	-1.13707
    73	 5.95168	 26.7865	 12.7392	-0.481099	-1.82614	 1.23472
    74	 6.35461	 25.7957	  11.852	-1.38431	-2.61425	 3.81335
    75	 6.34456	 26.0505	 10.4737	0.651945	-2.58286	 2.11775
    76	 5.91404	 27.3017	 9.99661	-0.457898	-1.23024	 1.07725
    77	 5.51713	 28.2999	 10.8997	 1.67069	 2.07903	 1.79583
    78	 5.52346	 28.0301	 12.2623	-1.25782	-0.919944	-1.75819
    79	 6.68158	 24.8489	 12.1765	-5.95129	 11.8745	-2.40969
    80	 5.22062	 28.7652	  12.948	-2.97672	  3.4138	 6.78122
    81	 6.60705	 25.2901	 9.76651	 -13.025	0.917174	 11.8635
    82	 5.21833	 29.2614	 10.5187	 10.7317	-5.19411	 6.46473
    83	 5.88127	 27.5025	 8.91934	-2.21917	-8.06731	 6.17265
    84	 5.93207	 26.5962	 13.8019	 -8.8664	 1.68074	0.213937
    85	 16.9869	 27.7914	 33.0191	-1.08328	-3.22172	 1.58085
    86	 17.0988	 28.7169	  34.059	-0.876984	-0.919557	-0.18749
    87	 18.1013	 29.6817	 34.0315	-0.396346	-1.23377	-1.27618
    88	 18.9984	  29.733	 32.9776	-0.141612	 -2.1117	 2.01125
    89	 18.8656	 28.8074	  31.925	-5.57785	-4.11779	 1.35357
    90	 17.8712	 27.8659	 31.9545	-3.01005	  2.0112	 2.57544
    91	 16.3966	 28.6752	 34.9046	-1.48789	0.0352294	  3.4093
    92	 17.8145	 27.1409	 31.1412	-1.65238	 1.84654	 13.1916
    93	  18.208	 30.3881	 34.8635	 4.67362	-2.55353	 2.22856
    94	 19.5975	 28.8784	 31.0944	 -5.8161	-2.99692	 5.26377
    95	 19.7519	 30.5106	 32.9398	-10.9193	-5.13966	-8.07469
    96	 16.1902	 27.0804	 33.0148	 10.0613	 14.4363	  1.2653
    97	 21.1139	 35.6687	 20.8224	-1.43128	-0.54242	-0.36951
    98	 22.4078	 35.2832	 20.4344	 1.12621	-2.76071	 1.72353
    99	 22.6058	  34.736	 19.1618	-0.549313	-1.16996	-0.50831
   100	 21.5114	  34.558	 18.3032	-4.35362	-1.16652	 1.45793
   101	 20.2247	 34.9395	 18.6929	-4.16032	0.303116	0.814671
   102	 20.0305	 35.5005	 19.9556	-2.66704	 1.74084	-0.559868
   103	 23.2427	 35.4357	 21.1111	-0.0771599	0.633081	 1.88469
   104	 19.0561	 35.7647	 20.2893	 3.29693	 -4.9813	 5.43792
   105	 23.6109	 34.4643	 18.8758	0.687334	 3.80432	 4.86718
   106	 19.4151	 34.7972	 18.0378	-10.5222	-2.83048	 -5.4037
   107	 21.6801	 34.1052	  17.315	 -2.0734	-6.03898	 0.69925
   108	  20.943	 36.0535	 21.8375	-3.98475	-11.5789	 6.66437
   109	 22.2138	 29.3566	 2.87589	-0.284645	0.108721	-0.269756
   110	 23.0667	 30.1672	 2.12272	 2.80512	-1.59718	0.864751
   111	 24.2431	 30.6596	 2.68207	0.731391	-0.556645	 1.18629
   112	 24.5753	 30.3411	 3.99039	-1.09649	 2.59346	0.323894
   113	 23.7371	 29.4937	  4.7458	0.295082	 -3.9814	0.755565
   114	 22.5607	 29.0213	 4.18548	 1.90278	-0.312871	-0.354192
   115	 22.7749	 30.4513	 1.08935	-6.69509	-1.12865	 6.46314
   116	 21.9201	 28.3994	 4.73895	-5.19283	-6.94194	0.863232
   117	 24.9226	 31.2982	 2.11787	-2.88571	-5.74916	 6.56105
   118	 23.9805	 29.2685	 5.76422	 -5.5052	 3.39901	0.0511845
   119	 25.4895	 30.7434	 4.43222	-11.6892	 1.82494	 3.49448
   120	 21.3229	 28.9701	  2.4374	 6.74734	-2.07369	-0.373784
   121	 20.5714	0.842773	 8.62921	-2.23449	-0.988244	-1.11925
   122	 21.3408	0.485122	 9.75011	 1.12505	0.262333	0.0248534
   123	 20.7088	0.296051	 10.9782	-0.737854	-1.62466	-1.35368
   124	  19.333	0.480094	 11.1063	-0.243386	-1.38084	 1.01605
   125	 18.5804	0.843696	 9.98708	0.218034	-1.45112	0.903231
   126	 19.1978	 1.03031	 8.75872	-1.68597	0.305096	 1.56991
   127	 22.3863	0.313689	 9.69124	 -5.2978	-6.38489	 8.00377
   128	 18.6089	 1.33939	 7.88385	-1.88204	 6.40343	0.198546
   129	 21.2905	0.00197429	 11.8604	-1.98098	-4.44794	 1.49881
   130	 17.5218	 1.02082	  10.047	 3.45478	 6.97039	-7.48484
   131	 18.9096	0.347166	 12.0751	 13.0324	 3.02303	-7.93508
   132	 21.0939	0.984559	 7.69645	 6.04803	-0.570588	  5.7155
   133	 15.8864	 23.0233	 29.6033	-0.721029	 -0.8601	-1.58603
   134	 15.7795	 23.0677	 28.2163	 1.27668	 2.04125	-0.168092
   135	 16.6703	 22.3379	  27.437	-2.26552	 -3.0648	 2.10161
   136	 17.6917	  21.612	  28.036	-1.93939	-0.237838	 1.64364
   137	 17.8067	 21.5765	 29.4224	-1.71195	-1.29506	 1.03074
   138	 16.9086	 22.2855	 30.2121	 1.04127	-1.80686	 1.05408
   139	 15.0101	 23.6724	 27.7755	 11.5037	 6.05351	 14.8913
   140	 17.0118	 22.3227	 31.3048	 3.93469	 13.0265	 3.47086
   141	 16.6244	 22.3822	 26.3676	 7.56303	 1.91532	   5.294
   142	  18.596	  20.995	 29.8608	 -10.794	 3.27785	-4.31389
   143	 18.4057	 21.0804	 27.4146	-0.299659	 4.54059	0.144965
   144	 15.1705	 23.5325	 30.1941	-2.45529	-11.1018	-6.51699
   145	 15.0597	 29.7403	 18.7385	-1.47481	-0.388034	-1.75294
   146	 14.3366	 29.6552	  17.567	0.889657	-0.793617	 1.94974
   147	 14.4158	 30.6821	 16.6349	   1.131	 -3.2571	 2.08998
   148	 15.2073	 31.8034	 16.8869	-1.88805	-1.04625	 2.07839
   149	 15.9357	 31.8828	 18.0733	-2.16333	-0.751475	 2.40925
   150	 15.8773	 30.8469	 19.0033	 1.70034	 -1.1948	 1.24257
   151	 13.7404	 28.8262	 17.3249	 -1.5977	-5.57885	-12.7681
   152	 16.4345	 30.9173	 19.8995	-1.05715	0.766432	-5.03518
   153	 13.8607	 30.5836	 15.6852	 12.0257	-5.07802	 2.90258
   154	 16.5921	 32.7487	 18.2376	-1.98925	-5.37928	-11.6902
   155	 15.2548	 32.6158	  16.185	 -4.4832	0.664804	 8.19113
   156	 14.9817	 28.9571	 19.5167	-6.15296	  4.6968	 9.99352
   157	 39.8557	 28.0262	 7.26775	-3.56655	-2.28385	  3.2143
   158	 39.7699	 26.8685	 6.48185	-0.501738	  -1.521	-1.19061
   159	 39.6973	 25.6254	  7.1144	-5.51007	0.231788	  1.4984
   160	 39.7687	 25.5312	 8.49889	-0.0724661	-2.98729	-0.961688
   161	 39.8751	 26.7078	 9.28143	 1.64971	0.899118	 2.65834
   162	  39.915	  27.956	 8.64379	-0.949064	   1.166	-0.297784
   163	 39.6962	 26.9473	 5.40066	-9.06889	 1.46911	-0.547621
   164	 39.9761	  28.874	 9.25982	-4.65203	 4.45248	 4.16538
   165	 39.6889	 24.7404	 6.53992	 10.2308	-9.04086	-2.55713
   166	 39.8726	 26.6354	 10.3344	-7.70332	 5.42084	-12.3765
   167	 39.7577	 24.5707	 9.01085	 6.47978	-0.528181	 4.87447
   168	 39.9011	 29.0188	 6.74743	-2.00469	-3.26769	 6.17488
   169	 14.9798	 35.7009	 33.2097	-1.28405	 -1.5916	-1.39591
   170	 14.4646	 35.3361	 31.9755	-0.338204	-1.38617	 1.28068
   171	 13.5202	 34.3039	 31.8743	-1.42942	-2.39082	-1.90341
   172	 13.1058	 33.6489	 33.0443	-0.279229	  -1.045	 1.06184
   173	 13.6158	 34.0174	 34.2768	-2.14398	-0.367494	-0.0388312
   174	 14.5592	 35.0438	  34.371	-1.85262	-1.10931	0.168802
   175	 14.8212	 35.8502	  31.088	 5.52442	-4.86968	 15.5059
   176	 14.9504	 35.3365	 35.3262	  1.6227	 5.43507	 12.8995
   177	 13.1216	 33.9991	 30.9079	-0.171215	 -8.9961	 8.84853
   178	 13.3097	 33.4362	 35.1379	 2.73275	 -15.858	-8.91296
   179	 12.3687	 32.8876	 32.9827	-1.24668	 8.07908	 3.42532
   180	 15.7153	 36.5357	 33.2863	-0.402537	 6.25077	 1.47596
   181	  25.806	 6.31697	 33.7062	-3.63032	-1.21843	0.194192
   182	 26.0268	 7.68995	 33.8365	 -3.0233	-1.24554	 2.04516
   183	  25.602	 8.36865	 34.9634	 1.35028	-0.838474	-0.0131048
   184	 24.9179	 7.67055	 35.9791	 -4.4652	 -2.2104	0.958551
   185	 24.7173	 6.30329	  35.866	0.735354	-0.678627	 1.37208
   186	  25.157	 5.63096	 34.7309	-0.704387	0.691502	 2.30767
   187	 26.5685	  8.2387	 33.0276	-1.69477	 2.47207	 7.77602
   188	 24.9682	  4.5456	 34.6161	-0.663659	 5.73806	-7.60458
   189	  25.739	 9.41809	 35.0394	-7.00889	-5.35585	-3.40689
   190	  24.179	 5.78992	 36.6192	-13.4456	-3.17536	  4.9824
   191	 24.5747	 8.20225	 36.8542	-4.05428	-2.04621	 -1.3646
   192	 26.1601	 5.78282	 32.8171	-1.76357	 7.67917	 3.47516
   193	 28.9253	 29.7478	 37.9708	0.0798934	  2.7511	 2.30121
   194	 28.3893	 30.9808	   37.67	-0.635934	-2.85527	-0.945041
   195	 28.9717	 32.1252	 38.2234	0.313512	-2.45337	 1.28997
   196	 30.0741	 32.0201	 39.0498	-2.18574	-1.46378	-0.590922
   197	 30.6163	 30.7769	 39.3396	-0.39238	 2.07365	-0.33811
   198	 30.0421	 29.6284	 38.8023	 1.18148	 1.26735	 1.92993
   199	 27.5313	 31.0658	 37.0528	 1.48303	-3.31216	 6.49124
   200	 30.4531	 28.6681	 39.0121	 0.24271	 5.64248	-1.31472
   201	 28.5555	  33.112	 38.0056	-0.811736	-0.92885	 2.01086
   202	 31.4921	 30.6674	 39.9863	-5.31402	 3.71218	-5.48553
   203	  30.536	 32.9408	 39.4569	-7.97159	 2.10452	-11.2089
   204	 28.4407	 28.8621	  37.542	-7.31832	 4.24167	 1.64619
   205	 28.3253	 8.68239	 39.1773	-1.56324	-1.54524	-1.33173
   206	 28.8187	 9.99058	 39.2793	0.170206	-0.564651	 1.46428
   207	 27.9483	 11.0504	 39.5678	0.0665189	 1.96164	0.189289
   208	 26.5927	  10.783	 39.7709	0.885884	-0.413267	0.168967
   209	 26.1101	 9.47682	 39.6831	0.957809	-1.44438	0.732416
   210	 26.9554	 8.43171	 39.3973	-5.04591	-0.522232	 2.64979
   211	 29.8621	 10.2033	 39.1396	-3.02074	 2.64606	 5.75753
   212	 26.5589	 7.42238	 39.3421	-9.36693	 1.02301	 6.10927
   213	 28.3695	 12.0277	 39.6726	 1.50773	-13.4309	 8.83288
   214	 25.0698	 9.33725	   39.81	 4.85318	 12.2164	-6.55473
   215	  25.959	 11.6001	 39.9862	 10.7658	-1.13621	-2.99421
   216	 28.9986	 7.86776	 38.9488	-2.88828	-0.756346	 -1.2194
   217	 18.3075	 5.32619	 2.12011	-0.062618	0.831042	 0.75788
   218	 16.9511	 5.72054	 2.13521	-3.71779	0.594645	0.750882
   219	 16.6348	  7.0691	 2.13476	-1.15996	-0.325373	 2.25939
   220	 17.6471	 8.02575	 2.11728	-1.37265	-1.92968	 3.57281
   221	 18.9782	 7.64369	 2.09846	-2.74828	 1.09756	   2.912
   222	 19.3068	 6.28434	 2.09894	-1.92676	0.547455	 1.38861
   223	 16.1614	 4.96606	 2.19649	 6.47474	0.855449	 10.5018
   224	 20.3574	 6.00376	 2.09397	0.0825597	 6.95863	 3.03286
   225	 15.6032	 7.42266	 2.16935	0.983561	  9.2725	 7.56224
   226	 19.7983	 8.34507	 2.04592	 4.74716	-9.80269	-5.16177
   227	  17.376	 9.11364	 2.07462	-8.92797	-4.47671	-4.72765
   228	 18.5686	 4.26553	 2.12955	 2.47275	0.123121	   1.766
   229	 4.13889	 23.8335	 18.5261	-3.29925	-0.353699	0.0299651
   230	 4.20021	 22.5029	 18.1119	-0.184225	-1.88232	 5.12554
   231	 3.01442	 21.8499	 17.7375	-2.24066	0.215514	 -0.3519
   232	 1.78949	  22.517	  17.839	-2.45747	  1.1723	 3.28056
   233	  1.7492	 23.8283	 18.2586	-0.655279	-1.79772	-0.550322
   234	  2.9334	 24.4974	 18.6106	0.794763	0.0835778	-0.323728
   235	 5.12247	 21.9786	  18.052	-7.60556	-3.60399	  6.7806
   236	 2.89372	 25.4963	 18.9786	0.401975	-7.41764	 6.22563
   237	 3.05354	 20.8174	 17.3797	-1.74511	-0.138709	-4.50692
   238	0.794861	 24.3214	 18.3262	-0.733737	 -7.1608	-0.43083
   239	0.873768	 22.0405	 17.5151	-1.92464	 10.1783	-8.62613
   240	 5.08662	 24.3415	 18.8124	 3.65273	-1.97661	 2.89132
   241	0.773443	 14.7718	 28.8392	-2.46805	-0.0584157	 1.92421
   242	 1.78996	 14.0916	 29.5176	-0.242932	-0.56642	-0.101145
   243	 2.80305	 14.8012	 30.1806	 1.40153	-2.04779	 3.64466
   244	 2.79222	 16.1985	 30.1339	-0.795215	-2.29684	 2.31326
   245	 1.78647	 16.8904	 29.4476	-1.05894	 1.96953	 2.24883
   246	0.783057	 16.1744	 28.8046	-0.206941	 2.18884	 3.42604
   247	 1.80897	 13.0363	 29.5876	 4.20218	  6.6253	 8.78763
   248	 39.9796	 16.6619	 28.2692	-4.77816	-7.50306	 3.32641
   249	 3.59409	   14.27	 30.7174	-1.02052	 6.25188	 1.01876
   250	 1.77174	 17.9698	 29.3986	-4.50332	 0.19273	-1.96391
   251	 3.55948	 16.7737	 30.5935	-5.03158	 2.26745	-8.29502
   252	0.0184882	 14.2128	 28.2904	 4.32227	-0.0536294	-8.33384
   253	  22.722	 17.6717	 11.6833	-0.435929	-1.09218	0.950996
   254	 23.9201	 18.3775	 11.8074	0.361736	-0.489231	-0.819668
   255	 24.9983	 17.8119	 12.4877	0.813181	 1.16097	 1.74085
   256	 24.8822	 16.5204	 13.0294	0.886246	-0.616262	 1.43286
   257	 23.6776	 15.8142	 12.8959	-1.26948	-0.883504	0.666422
   258	 22.6067	  16.385	 12.2292	 0.62982	-2.10635	 1.92554
   259	 24.0077	 19.3555	 11.4234	-0.300547	-4.78575	 8.05351
   260	 21.6882	 15.8193	   12.11	 8.77902	 3.47292	 -4.2631
   261	 25.9206	 18.3816	 12.6044	-13.3123	 3.93564	 1.60211
   262	 23.5933	 14.8369	 13.2918	0.311158	 3.70882	-5.18745
   263	 25.7377	 16.0994	 13.5272	0.984955	 13.7472	-9.55866
   264	   21.86	 18.0821	  11.168	 6.36252	-7.49477	 6.31564
   265	 10.8717	 12.5744	 23.0881	-1.69843	-1.77276	 1.41965
   266	 12.2599	 12.4502	 23.0947	-1.89544	-0.89824	  2.5066
   267	  13.073	 13.5914	 23.1147	-0.376547	-1.00891	 1.54521
   268	 12.4833	 14.8559	 23.1273	-1.56497	-0.731407	-0.875682
   269	 11.0936	 14.9805	 23.1355	-1.97113	-1.52689	  1.2973
   270	 10.2886	 13.8422	 23.1171	-1.72166	-1.35058	  2.8325
   271	 12.7283	 11.4536	 23.0783	 2.94253	 7.31419	  3.0672
   272	 9.20919	 13.9473	 23.1204	-1.12511	-0.388244	 3.83384
   273	 14.1471	 13.5036	 23.1201	-2.08481	 2.71424	 2.60175
   274	 10.6351	 15.9784	 23.1398	-2.77856	 1.03172	-1.69081
   275	 13.0972	 15.7431	 23.1678	-4.87417	-0.689632	 4.16682
   276	 10.2433	 11.6901	 23.0334	-2.02619	-1.13905	-6.92128
   277	 4.56793	 36.2618	 18.2097	-1.88554	0.415617	 3.89777
   278	 3.38277	 35.6027	  18.554	-4.01805	-0.997474	   -2.55
   279	  3.0197	  35.541	 19.9131	-2.85623	-1.85838	0.941253
   280	 3.82558	 36.1339	 20.8664	-2.56917	-2.09695	-4.49242
   281	 5.00543	 36.7866	 20.5102	-1.54683	-2.20483	 0.74214
   282	 5.37239	 36.8621	 19.1583	-2.03352	 1.87214	-1.08973
   283	 2.77161	 35.1177	 17.8415	-0.326114	-5.91425	 7.60919
   284	 6.27463	 37.3798	 18.9343	-4.99716	 3.92929	 14.3367
   285	 2.13226	 35.0416	 20.1776	 3.80037	0.362888	-5.23495
   286	  5.6458	 37.2525	 21.2582	 1.35525	 -1.5219	-1.36289
   287	 3.57408	 36.1107	 21.9105	  1.6478	 2.49741	 11.7742
   288	 4.87124	 36.2855	 17.1443	 1.92695	-4.55558	-0.17031
   289	 21.8151	 2.59113	 27.6385	-0.688695	 -1.1385	0.350563
   290	 23.2129	  2.6151	 27.6403	-0.0216359	0.256305	0.0634762
   291	 23.8754	 3.82754	 27.6421	-4.35463	-0.807793	-0.220549
   292	 23.1767	 5.02581	 27.6446	-0.779496	-0.746258	0.610517
   293	 21.7766	 5.00924	 27.6468	-2.19771	-0.412555	 1.82018
   294	 21.1052	   3.792	 27.6412	0.0534552	-0.233435	 1.22219
   295	 23.7002	 1.68469	 27.6109	-16.0925	  1.0974	-7.04449
   296	 19.9939	 3.77501	  27.668	-5.85834	-0.93331	 8.17488
   297	 24.9829	 3.82253	 27.6315	0.446442	-5.48681	-3.38468
   298	 21.2247	  5.9295	 27.6209	-1.23081	 -3.6242	-3.98793
   299	 23.6956	 5.99641	  27.629	-3.59449	 4.30364	-3.49515
   300	 21.2828	 1.63371	 27.6659	-1.22635	-3.10719	 7.22691
   301	 20.4421	 34.6726	 7.96328	 1.42843	-0.0919876	-1.33661
   302	 19.6087	 35.1517	  8.9897	-2.41141	-3.33943	0.631199
   303	 19.2178	 36.4996	 8.97781	-1.41187	-0.0198157	0.0134895
   304	 19.6351	 37.3294	 7.94998	-2.30967	-4.11229	0.462448
   305	 20.4515	 36.8546	 6.93517	-3.01318	-0.483864	 1.87856
   306	 20.8466	 35.5189	 6.94077	 -2.4308	0.682328	-0.520738
   307	 19.3182	 34.5351	 9.79921	 6.34816	 6.09538	  2.6214
   308	 21.4617	 35.0916	 6.16433	-7.55378	 -9.4394	 3.34959
   309	 18.5701	 36.8872	 9.78464	-3.95646	-0.193151	 3.89027
   310	 20.7646	 37.4939	 6.15075	-1.12573	 5.78275	-7.35456
   311	  19.341	 38.4198	 7.96531	 2.06252	-4.43653	 9.22348
   312	 20.7536	 33.6657	 7.99935	 1.99977	 8.35628	 4.99201
   313	 33.0023	 19.9478	 23.7318	-2.25834	-0.518698	 1.36443
   314	 31.9899	 19.1918	 23.1645	 1.42828	0.804252	0.0535274
   315	 31.7081	 19.2953	 21.8088	-2.06914	 1.00781	 3.00166
   316	 32.4734	 20.1379	 21.0098	-0.132102	-2.36267	 2.98551
   317	 33.5015	  20.905	 21.5604	0.595146	-0.226687	-0.132994
   318	 33.7719	  20.812	 22.9288	0.912727	 1.40357	 0.41771
   319	 31.3996	 18.5262	 23.7685	-8.51548	-9.51449	 5.59811
   320	 34.5491	 21.4346	  23.359	-4.17961	 8.79452	-1.86913
   321	 30.9344	 18.7373	 21.3554	 3.83017	 8.49097	0.103068
   322	 34.1125	 21.5453	 20.9369	 5.72134	  -6.718	-0.245499
   323	 32.2742	  20.223	  19.955	 2.38807	-0.71215	 5.13279
   324	 33.1671	 19.8509	 24.7728	-12.8326	-4.92592	-4.02529
   325	 4.86661	 3.98002	 39.9895	-2.42996	-0.695932	-2.22102
   326	 6.12463	 4.59575	0.0108496	-0.553043	 -1.4617	 2.77027
   327	 7.27209	 3.82167	0.00687611	-3.48648	-1.71456	 1.84132
   328	 7.20063	 2.44666	 39.9962	0.849118	 2.49268	-0.882112
   329	  5.9357	 1.81876	0.00757271	-2.87525	0.176553	 1.77039
   330	  4.7732	 2.58909	0.00537933	-3.22715	-0.913166	  1.4914
   331	 6.18618	 5.68669	0.00413568	-2.52866	-0.0719513	 1.20065
   332	 3.79684	 2.11358	0.0122538	-3.77743	0.837112	 3.09856
   333	 8.27746	 4.30294	0.0156848	 3.84845	-1.64957	 3.66688
   334	  5.8477	0.748393	0.0053907	-7.08481	  3.3648	 1.26027
   335	 8.09021	 1.80592	  39.973	-2.52191	-6.33092	-6.31322
   336	 3.96541	 4.59667	 39.9947	-1.54121	 2.26106	-1.00324
   337	 6.53472	 8.97941	 4.42598	-0.765982	-2.24215	 2.56601
   338	 6.77218	   10.35	 4.52007	-2.90921	-1.26221	 1.69318
   339	 7.95443	 10.8103	 5.10431	-1.77027	0.0754149	-2.26504
   340	 8.87992	 9.88917	 5.61686	-1.65495	 -1.1289	0.434068
   341	 8.62435	 8.52156	 5.52189	-3.38804	0.543813	 1.18509
   342	 7.44573	 8.07666	 4.92001	-3.80391	0.622338	 0.93688
   343	 6.05355	 11.0337	 4.09479	-3.14521	-8.94913	-6.82905
   344	 7.27517	 7.00817	 4.85723	 1.90973	0.273491	 4.26106
   345	 8.15207	 11.8841	 5.19974	-8.00795	-5.46577	-1.21905
   346	 9.36192	 7.85168	 5.87225	 11.9266	-0.851366	-2.54711
   347	 9.78581	  10.251	 6.13611	 -9.8859	-7.55914	 9.60291
   348	 5.60914	 8.65296	 3.98515	-3.00549	 3.96502	 8.68405
   349	 35.9923	 23.3041	 24.6033	-1.55695	-3.01867	 4.28881
   350	 35.1314	  22.831	 25.5834	-2.23783	 -1.4092	 2.20807
   351	  35.547	 21.8144	 26.4241	-3.04147	-0.149314	-0.220298
   352	 36.8279	 21.2658	 26.2916	-1.60873	-1.66312	0.616898
   353	 37.6854	 21.7716	 25.3103	-2.68928	 3.80459	 3.34823
   354	  37.266	  22.771	 24.4518	-2.33702	-1.16493	 1.12125
   355	 34.1259	 23.2647	 25.6735	-4.46945	 1.32752	-1.98771
   356	  37.941	 23.1999	 23.7263	-0.944429	 11.9022	 11.5267
   357	 34.9204	 21.4715	 27.2521	 6.63989	 7.35794	 13.1079
   358	 38.6949	 21.3154	 25.1788	 -8.3061	-3.89801	 2.50788
   359	 37.1765	 20.4831	 26.9786	 5.06747	 8.15026	-1.72031
   360	   35.66	 24.1168	 23.9272	-2.81084	0.662282	 1.22033
   361	  12.166	  13.936	 38.5924	-0.240892	 1.40671	 3.84155
   362	 12.7993	 15.1377	 38.8725	-0.16273	-0.297047	0.595464
   363	 14.1611	 15.1501	 39.1762	0.0132072	-1.37528	0.282423
   364	 14.8869	 13.9633	 39.1903	-0.397094	-0.81091	0.967076
   365	 14.2338	 12.7534	 38.9116	 -5.1831	-1.30133	 4.35179
   366	 12.8964	 12.7511	 38.6068	 0.57044	 2.13383	 4.39193
   367	 12.2808	  16.058	 38.8772	 11.1693	-1.64699	 3.79631
   368	  12.408	 11.8134	 38.3888	 1.40652	 2.89036	 6.96308
   369	 14.6451	 16.1108	 39.3977	-1.15832	-7.02987	-2.48758
   370	 14.8024	  11.803	 38.9293	-4.33824	 5.57327	  7.8801
   371	 15.9675	 13.9542	 39.4068	  4.3163	-5.80313	-4.02625
   372	 11.1068	 13.9095	 38.3599	-0.0377438	-1.74332	 4.87967
   373	 39.0726	 34.0288	 1.88137	-0.668511	-2.01218	 3.93278
   374	  39.066	 32.6548	 2.13456	0.472373	-1.90903	 2.00169
   375	 37.8408	 32.0054	 2.33154	-2.84622	-0.606905	-3.61413
   376	 36.6523	 32.7224	 2.31674	-0.633393	-0.147327	 2.51075
   377	  36.666	 34.0874	 2.04567	-0.694707	-1.06412	0.156121
   378	 37.8743	 34.7459	 1.83852	-1.55487	-0.482865	 3.16122
   379	 39.9772	 32.0678	 2.13696	-8.75081	0.242744	-6.17467
   380	 37.8639	 35.8164	 1.63937	-6.34713	0.317407	 4.06128
   381	 37.8224	 30.9579	 2.53619	 -4.3586	 3.94248	-3.22891
   382	 35.7378	 34.6074	 2.01478	0.430934	-9.72521	0.183032
   383	 35.6975	 32.2179	  2.4466	-3.15603	 1.38201	-7.34156
   384	0.0135728	 34.5483	 1.71676	-1.73637	 1.00193	 5.55567
   385	 27.6095	 34.0931	 15.2265	 1.04359	-3.72347	0.579463
   386	  26.465	 34.0723	 16.0264	-0.23591	0.986427	-0.61363
   387	 25.8076	 32.8468	 16.2813	-3.10303	-1.67779	 4.72931
   388	 26.3083	 31.6741	 15.6849	-1.33583	-1.62042	-0.965725
   389	 27.4588	 31.7088	 14.8897	 1.58004	-3.07688	 1.09676
   390	 28.0907	 32.9396	 14.6596	-1.83207	-0.212681	 1.70743
   391	 26.0548	 34.9582	 16.4603	-6.36241	-5.31943	-3.20232
   392	 29.0031	 32.9886	 14.0576	 4.24151	 4.58241	 7.63034
   393	 24.9148	 32.8083	 16.8865	-4.49827	-2.96589	-0.352999
   394	 27.8469	 30.7878	 14.4482	 3.67101	 5.18281	 3.11516
   395	 25.8223	 30.7333	 15.9113	 2.64009	-0.167576	 9.66185
   396	 28.1202	  35.068	 15.0726	 2.86128	 3.02959	 6.91084
   397	 10.2478	 38.7358	 24.5991	-1.69685	-0.455542	 0.68844
   398	 10.3215	 38.4593	 25.9677	-2.19638	-2.48728	 1.77868
   399	 11.5155	 38.6974	 26.6504	-1.13738	-0.343422	-1.67835
   400	 12.6274	 39.1884	 25.9828	-1.42919	-2.38444	 1.33671
   401	 12.5596	 39.4732	 24.6196	-0.105441	 1.45046	 2.25176
   402	 11.3723	 39.2304	 23.9309	0.371643	-1.64396	 2.89899
   403	 9.47418	 38.0778	 26.4827	 2.61472	-0.993018	-0.775828
   404	 11.2992	 39.4433	 22.8613	-8.34808	-4.22836	 10.5581
   405	 11.5875	  38.471	 27.7062	 2.95248	-7.85727	 13.1947
   406	 13.4389	 39.8263	 24.0685	-8.39903	-10.7973	 -1.3892
   407	 13.5706	 39.4088	 26.5433	 2.25372	 6.96446	 6.61407
   408	 9.31477	 38.5345	 24.0505	  8.0601	-1.81214	-1.50023
   409	 27.5896	 37.3233	 11.8451	-2.43866	-0.620124	0.501382
   410	 28.2637	 37.8626	 10.7454	-0.127974	-0.885541	0.836793
   411	 29.2686	 38.7866	 10.9318	-4.99563	-1.49259	-0.512011
   412	 29.6443	 39.1742	  12.212	-1.33265	-0.882018	-3.03274
   413	 28.9843	 38.6411	 13.3289	0.221769	 1.48956	0.503524
   414	  27.956	 37.7138	 13.1224	-0.944712	0.893354	-2.48376
   415	 27.9649	 37.5702	  9.7674	-4.45388	0.759707	 7.34103
   416	 27.4098	 37.3155	 13.9799	-7.75903	 6.19961	-2.59566
   417	 29.8408	 39.1968	 10.0534	-1.25095	-11.8205	-1.59732
   418	 29.2503	 38.9114	  14.313	-3.66816	-5.99538	-4.19962
   419	 30.4444	 39.8677	 12.3573	-8.34236	-13.7679	0.854165
   420	 26.7837	 36.5947	 11.6947	 2.89944	  3.7787	-4.31327
   421	 11.9549	 32.1386	 9.02193	-0.0751285	-0.667174	 1.45793
   422	 11.9081	  30.783	 9.37033	-3.39292	 -1.8986	 1.15781
   423	 11.7387	 30.4162	 10.7047	-3.81245	-0.656033	 2.27156
   424	 11.6268	 31.3871	  11.693	 1.57813	-1.83828	 2.56164
   425	 11.6498	 32.7356	 11.3406	-0.515127	-2.43651	0.839367
   426	 11.8092	 33.1013	 10.0044	-2.29882	-4.37806	0.0839472
   427	 12.0075	 30.0235	 8.60692	 -4.7972	-2.45446	 3.25516
   428	 11.8556	 34.1801	 9.76708	 3.19767	-8.32138	 3.86911
   429	 11.7109	 29.3956	 10.9686	-4.47658	  6.6856	0.833637
   430	 11.5627	 33.5093	 12.1226	 3.90704	0.772924	 3.65204
   431	 11.5423	 31.1001	 12.7092	 12.4554	-0.68197	 -2.7639
   432	 12.1073	 32.4478	 7.98071	 4.27766	-5.40792	 7.25923
   433	 30.4213	  29.318	  9.4881	-0.174145	-1.17874	  3.7636
   434	 31.4434	 28.5043	 9.01087	-1.33786	 1.22267	-0.242906
   435	 31.5427	 27.1757	 9.46647	 -1.0035	-2.16486	-0.591014
   436	 30.6156	 26.6859	 10.4017	-0.320424	-2.12289	 3.43569
   437	 29.5852	 27.5177	 10.8585	-1.33164	-0.300347	 2.67087
   438	  29.498	 28.8235	  10.396	 1.16914	-2.23027	 1.62995
   439	 32.1854	 28.9154	   8.341	 2.88869	  8.0389	 10.2862
   440	 28.6955	 29.4737	 10.7845	0.572934	-0.315215	 8.53201
   441	 32.3344	 26.5376	  9.0949	-2.95478	-1.25471	-3.76377
   442	 28.8635	 27.1126	 11.5327	-0.828945	-5.70788	-6.84177
   443	  30.695	 25.6583	 10.7492	0.456441	-2.96212	 1.44095
   444	 30.3639	  30.345	  9.1011	 4.17805	-0.477865	-3.24929
   445	 16.8058	 20.2328	 21.9301	0.895508	0.420394	0.727776
   446	 17.9432	 20.9871	 21.7982	-3.70497	-2.07394	 5.65683
   447	 18.1458	  22.123	 22.5849	-3.55192	0.471609	 2.78323
   448	 17.2039	 22.4698	  23.528	0.0298392	-2.29502	0.0175744
   449	 16.0356	 21.7097	 23.6818	-3.83729	-1.23047	0.653993
   450	 15.8508	   20.58	 22.8914	0.178888	-2.34695	 2.90654
   451	 18.7125	 20.7048	  21.081	 2.68934	-2.62428	 11.6916
   452	 15.0046	 19.9674	 23.0361	  12.995	-5.97699	  8.6676
   453	 19.0634	 22.6655	 22.4143	-8.41924	-13.1987	 -3.8395
   454	 15.3022	 21.9712	 24.4036	-1.58438	-5.56741	-4.06368
   455	 17.3191	 23.3451	 24.1537	-10.7284	-2.78479	   1.103
   456	 16.6506	  19.356	 21.2977	 1.31707	0.464509	-1.46662
   457	 15.1701	 16.7156	 11.4052	 1.90235	-1.25271	0.291332
   458	 16.3635	 17.2769	 11.8307	0.665423	-2.50713	0.827394
   459	  17.329	 17.6454	 10.8871	-1.72068	 1.18995	0.390706
   460	 17.0964	 17.4103	 9.51567	-1.77082	-2.97359	-3.35044
   461	 15.9108	 16.8479	 9.11852	 1.81782	-1.65932	 2.22458
   462	 14.9262	 16.4923	 10.0423	-1.12924	 -2.7298	-1.09945
   463	 16.5572	 17.4428	 12.8992	 6.97208	-2.58581	-6.47641
   464	 14.0048	 16.0801	 9.69427	 2.29199	 4.47486	-5.78053
   465	 18.2887	  18.043	 11.1683	-5.47495	-13.1013	-7.95785
   466	 15.6984	 16.6661	 8.08567	 -5.7605	-4.41705	 8.10543
   467	 17.8527	  17.701	 8.81723	-1.93443	 1.17585	 4.26261
   468	 14.4284	 16.4633	  12.158	 5.48032	 3.81319	 5.38597
   469	 20.7344	 19.6933	 38.5839	0.239257	0.130324	 2.00291
   470	 22.0055	 20.2604	 38.4264	0.340365	-0.599434	 2.67118
   471	 22.2388	 21.5879	 38.8372	0.416799	 2.55149	 4.01459
   472	 21.1981	 22.3175	 39.3988	-1.37753	-1.99395	 3.21538
   473	  19.944	  21.766	 39.5424	0.451372	0.229275	-0.723504
   474	 19.7037	 20.4573	 39.1494	-0.770795	  2.4024	 2.19879
   475	 22.8158	 19.6964	 37.9438	-7.76492	 4.04958	-4.59803
   476	 18.7319	 19.9917	 39.2613	 8.25248	 4.72157	0.689418
   477	 23.2112	 22.0105	 38.6962	-2.51387	 -1.5204	0.269582
   478	 19.1501	 22.3427	0.0117087	 3.30624	-0.763649	 6.47789
   479	 21.3751	 23.3515	 39.6888	-2.54895	  0.3569	-2.61711
   480	  20.517	 18.7173	 38.2541	 -12.565	-4.56377	-6.31184
   481	 35.2862	  34.779	 12.5398	-5.10416	-0.232957	 -2.6096
   482	 34.0756	 35.4407	 12.5453	-1.03309	-0.303001	 1.47521
   483	   33.09	 35.0617	 11.6247	-0.386565	0.179084	-0.556833
   484	 33.3217	 34.0228	 10.7392	-2.87627	0.176012	 1.45601
   485	 34.5542	 33.3575	 10.7504	-1.59706	-0.82553	 1.26461
   486	 35.5428	  33.729	 11.6686	-1.52744	-3.27029	 2.55995