ITEM: TIMESTEP
0.0284194
ITEM: NUMBER OF ATOMS
240
ITEM: BOX BOUNDS
0	40
0	40
0	40
ITEM: ATOMS index type x y z
     1	 22.8526	 1.77548	 35.7572	 1.46508	 1.06604	-1.03567
     2	 23.2094	 2.16446	 34.4527	-0.440666	-1.90699	 3.56919
     3	 22.5578	 3.31199	 33.9677	 1.02257	-2.13995	-1.17638
     4	 21.6621	 4.03476	 34.6778	0.0748554	-1.40896	0.163926
     5	 21.3093	 3.57377	 35.9246	-1.99709	-1.16576	0.413052
     6	 21.9661	 2.51241	 36.5003	 1.85186	 1.42921	0.686176
     7	 24.0137	 1.71154	 33.9175	-0.907556	 8.45866	  4.5559
     8	 21.9184	  2.4443	 37.5512	 9.34264	 11.3105	 2.64371
     9	 22.7857	 3.65315	  32.934	 -1.7186	0.628349	-4.58642
    10	 20.8435	  4.2407	 36.6557	 9.50327	 2.84061	-0.257915
    11	 21.0993	 4.86794	 34.2851	-5.22543	-4.06716	  3.9577
    12	 23.2074	 0.77897	 36.0775	 -2.8078	-5.14082	0.0677446
    13	 30.7528	 26.7669	 2.76992	0.985801	 3.49118	-0.596211
    14	 29.6607	  27.397	 2.06657	0.606488	 1.94224	-1.62485
    15	  29.811	  28.687	 1.68483	-0.675998	 -1.9577	 1.52626
    16	 31.0894	 29.2812	 1.89218	 1.37115	-2.48428	0.181646
    17	  32.119	 28.6777	 2.56953	 1.85114	-1.01673	 1.51152
    18	 31.9113	 27.4043	 3.03906	-0.446094	 2.87193	 1.52429
    19	 28.7398	 26.8257	 2.02685	-6.95214	-6.42684	 3.98838
    20	 32.6998	 26.8159	 3.46001	-4.45828	-3.77147	-1.43473
    21	 29.1748	 29.2302	0.999625	0.934491	-0.664946	-8.62582
    22	 33.0712	  29.105	 2.71987	-3.27289	-1.78017	-2.29597
    23	 31.2232	 30.1899	 1.38078	  1.6617	-2.91636	-8.57397
    24	 30.4185	 25.8233	 3.12051	-5.37338	-2.68257	 5.57721
    25	 35.4406	 8.94329	 8.27807	  1.7368	-1.07387	0.821737
    26	 35.6197	 8.25572	  7.1137	 -1.6482	 1.11316	 1.34966
    27	 36.4926	 7.19528	 7.06382	-1.10677	-0.99301	 1.17353
    28	  37.174	 6.82176	 8.21696	-2.09255	-1.06908	-1.32232
    29	 36.9738	 7.48896	 9.42973	-0.98684	-2.51371	-0.724155
    30	 36.1475	 8.58331	 9.40556	  3.2519	-1.52943	-0.412054
    31	 35.2806	 8.65054	 6.13803	 5.93457	  4.1761	-0.881373
    32	 36.0144	 9.15921	 10.3496	 5.77317	-2.02007	-0.841821
    33	 36.6389	 6.68673	 6.13254	 1.30597	-5.38174	-2.95303
    34	 37.7071	  7.5015	 10.2152	 7.83048	 10.3808	-1.32668
    35	 38.1151	 6.33791	 8.10386	 5.28207	 12.5144	-1.33257
    36	 34.8169	 9.81076	 8.23909	 2.82523	 3.76355	-0.10321
    37	 29.7611	 7.57368	 10.2771	-0.255378	0.632505	-2.72319
    38	 31.0462	 7.00775	 10.1457	-0.390108	-0.731772	-1.05189
    39	 32.1607	 7.83795	  9.9778	0.553758	 1.77599	-1.45894
    40	 32.0043	 9.23845	 9.95402	 1.16693	-2.17611	-1.42341
    41	 30.7015	 9.72839	 10.1616	0.235106	-2.28297	0.215849
    42	 29.5569	 8.94067	 10.3847	-0.725787	-0.663285	 2.71788
    43	 31.1986	 5.95628	 10.1339	-8.11058	-3.48407	-0.912752
    44	 28.6089	 9.40235	 10.1827	-1.83228	-2.83493	-12.1718
    45	 33.1659	 7.45544	 10.0381	 -2.5854	 10.4439	 5.51945
    46	  30.514	 10.7587	 9.99733	-0.925444	0.0851667	   -6.13
    47	 32.8518	 9.84969	 9.83478	-0.213346	 4.94459	-0.948059
    48	 28.9955	 6.84872	  10.585	-4.95151	 15.1657	 8.37296
    49	 25.1289	 36.5328	 3.81307	-1.05688	0.200823	 2.44121
    50	 24.8443	 35.3015	 3.34259	-1.07854	 2.79093	 1.16056
    51	 25.3672	 34.7912	 2.16008	-0.103413	0.457535	-2.73736
    52	 26.2741	 35.6097	 1.42843	-0.0128315	-0.275793	 2.47253
    53	 26.4834	 36.8875	 1.88384	 -1.2603	-0.280666	0.812328
    54	 25.9217	  37.375	 3.06998	-0.407806	 1.29294	-0.301338
    55	 24.4514	 34.5098	 4.01015	 9.37745	-2.27346	 1.72593
    56	 26.1769	 38.3829	 3.43306	-3.98371	-5.79462	 3.68322
    57	 25.3533	 33.7491	 1.91128	 3.84376	 2.97083	 7.18655
    58	 27.2095	  37.508	 1.37577	-0.221358	-8.06061	 1.50907
    59	 26.5649	 35.3068	0.427925	-6.38501	-1.50315	-6.69251
    60	 24.5101	 37.0115	 4.54552	 -5.3583	 4.94487	 -7.3723
    61	 10.1233	 5.51121	 4.96527	-1.97048	 2.64205	 2.62161
    62	 10.9601	 4.72267	 5.72073	-1.44135	 1.87202	-1.73428
    63	 12.2102	  5.1544	 6.18913	 2.28431	 1.76016	0.373032
    64	 12.7052	 6.38398	 5.79501	0.354679	-0.332479	0.0474167
    65	 11.9134	 7.14639	 4.97238	 0.94192	-0.599586	 1.79222
    66	 10.7381	  6.7059	  4.4428	 1.44733	-3.09412	-0.360289
    67	 10.5563	 3.76778	 6.02157	-0.353121	-6.95255	 4.27625
    68	 10.2175	 7.32251	 3.76691	-2.90127	0.531853	-5.39885
    69	 12.7928	  4.4692	 6.75922	-3.89546	-0.409623	-6.24642
    70	 12.2876	 8.09241	 4.54416	-0.186887	-1.95128	-2.70657
    71	 13.6681	 6.72481	 6.14706	-1.38967	-2.39074	-0.0276514
    72	 9.36848	 5.11643	 4.34926	 5.07546	0.773707	-8.25441
    73	 21.8048	 19.7798	 11.2705	 1.43257	-3.55037	0.894883
    74	 22.0699	 20.7953	 10.4113	 2.11984	-0.0252831	0.970105
    75	 21.3716	 22.0369	 10.5211	-0.380655	 1.97972	 1.77543
    76	 20.4393	 22.2016	  11.493	0.717512	 1.76502	-1.73594
    77	  20.292	 21.1922	 12.4188	 2.28706	 1.29066	 2.81354
    78	 20.8696	 19.9539	 12.2438	-1.37455	-0.993963	0.721157
    79	 22.5649	 20.7026	  9.4721	-6.40785	-13.6179	  1.8374
    80	 20.5835	 19.2011	 12.9246	-9.30101	-0.283339	  5.8625
    81	 21.3083	 22.6344	 9.63669	-7.04561	 -9.6737	-4.67517
    82	  19.568	 21.2356	 13.2351	 7.70345	 3.57411	-7.89315
    83	 19.8627	 23.1016	 11.4815	-1.77626	 2.26861	-5.80725
    84	 22.2231	 18.7952	   11.08	-3.69732	-4.48667	-1.41424
    85	 37.4084	 5.23027	 30.9835	-1.32234	-1.05745	0.707134
    86	 37.3969	 4.95551	 29.6619	0.742076	 1.42485	0.768092
    87	 36.3711	 5.56363	  28.836	0.514404	-0.434368	 -1.8387
    88	 35.5653	 6.43748	 29.4783	 2.00805	-3.03224	-1.49163
    89	 35.5534	 6.68068	 30.8822	 -7.4338	-2.04278	  1.6473
    90	 36.6208	 6.18104	 31.5743	-1.15921	0.474625	 1.43674
    91	 38.0248	 4.20401	 29.2407	0.129143	0.554777	 2.63232
    92	 36.7272	 6.56279	 32.5521	 2.91942	-1.44024	-9.02846
    93	 36.3516	 5.31739	  27.788	 2.25143	 3.90801	 8.22601
    94	 35.1473	 7.56983	 31.2642	0.745959	 9.35962	0.576061
    95	 34.8728	 6.96838	 28.8358	-3.29675	 7.08829	 2.79107
    96	 38.0686	 4.60131	 31.6065	-5.35472	-7.94385	-3.15741
    97	  26.975	 10.4099	 36.3291	 1.31102	  1.0224	0.384511
    98	 27.2189	 11.2251	  37.417	-0.974413	-1.03407	-0.775395
    99	 26.2962	 12.2782	 37.5826	0.803299	-2.06347	-2.78227
   100	 25.0973	 12.4265	 36.8266	-2.93652	-1.35653	-0.125527
   101	 24.8957	 11.5789	 35.7553	-3.67179	 2.68068	  1.7371
   102	 25.8328	 10.6261	 35.5058	0.391461	 1.57668	-1.02665
   103	 28.0887	 11.1398	 38.0171	-2.66227	0.0791665	-5.03494
   104	 25.6319	 9.83734	 34.7796	-6.29879	-0.728024	0.0266867
   105	 26.4438	 12.9923	 38.4041	 4.34487	-1.82113	0.196402
   106	 24.0164	 11.7623	 35.1233	0.00169723	-2.81026	-3.12595
   107	 24.4284	 13.2284	  37.087	-7.67491	 3.32413	 2.34544
   108	 27.3457	 9.40757	 36.2524	-9.30359	-8.47823	 6.03299
   109	 28.3401	 20.7768	 18.1142	 1.15908	-0.983502	0.636375
   110	  28.233	 20.1424	 19.3415	-0.289029	 1.90147	-0.688137
   111	  27.255	 20.5142	 20.1998	 2.46143	0.830648	-2.26479
   112	  26.338	 21.5578	 19.8839	 2.66496	-0.299507	  1.3036
   113	 26.4457	 22.0514	 18.6248	0.328732	-2.53521	-1.89646
   114	 27.4729	 21.7708	 17.7845	0.0267929	0.464227	0.900502
   115	 28.9724	  19.351	 19.5854	-3.40129	 3.93042	 1.68462
   116	 27.5665	 22.3452	 16.8426	 9.13063	-5.12132	 1.37394
   117	  27.356	 20.1665	 21.2091	 8.98711	 7.23858	-0.656694
   118	 25.8571	 22.8815	  18.291	 6.07754	 -2.8128	-4.26677
   119	 25.6837	 21.8878	 20.6453	 4.94262	   10.02	-8.80592
   120	 29.1302	 20.6261	 17.4255	-0.779166	  2.0917	 6.49977
   121	 13.3682	  26.703	 6.97624	 1.11652	-0.315056	-0.852312
   122	 12.8421	 25.6075	 6.31174	 1.71202	-0.227774	 -1.4589
   123	 13.5619	 24.3734	 6.20126	-0.0911374	 1.27885	-1.82051
   124	 14.7673	 24.3396	 6.80798	0.192838	 1.47202	0.625561
   125	 15.3655	 25.4042	 7.43081	0.419257	 1.22014	-0.873089
   126	 14.5975	 26.5938	 7.56672	-2.20207	-1.26614	-0.759394
   127	 11.7881	 25.4702	 6.13827	 10.9375	-11.6356	 9.63189
   128	 15.1003	 27.4155	 7.98424	 6.23426	0.898743	-1.52409
   129	 13.0409	 23.5507	 5.79213	-0.0238269	-4.60453	 1.65799
   130	 16.4006	 25.4594	 7.60187	 3.33289	 4.66067	 -10.553
   131	 15.3675	 23.4094	 6.66158	 11.5187	-2.85754	0.958689
   132	 12.8725	 27.6114	 7.15509	-0.706294	 -2.1072	-1.57396
   133	 19.8062	 31.2143	 31.0079	0.432534	-0.489432	0.410804
   134	 18.6186	 30.5603	 31.2202	-1.97315	 2.98082	 7.33694
   135	 17.8693	 30.5965	 32.4605	0.159137	0.701818	 2.83823
   136	  18.271	 31.4543	 33.4222	-3.14819	0.358422	 3.88622
   137	  19.475	 32.1628	 33.1691	 0.13255	 2.29359	 4.31573
   138	 20.2356	 32.0663	 31.9951	 1.35454	0.802942	0.954096
   139	 17.9758	 30.2927	 30.4175	-8.63782	 20.5705	 10.8707
   140	 20.9981	 32.7963	 31.8513	-12.6278	 -1.8751	 -0.5497
   141	 17.0381	 29.8929	  32.557	  8.7866	-3.23768	-6.15745
   142	 19.9428	 32.6302	 33.9857	-1.69159	-11.7476	 -4.4494
   143	 17.8226	 31.5208	 34.4315	  1.6328	 0.21024	 8.29475
   144	 20.3864	 31.0165	 30.1112	-9.91623	-10.1338	 4.43487
   145	  11.718	 30.0002	 4.10903	-0.946688	-3.96845	 1.72708
   146	 11.6655	 31.1476	 3.38242	 0.65575	 2.19969	-0.714445
   147	 12.2408	 31.1834	 2.13448	 2.64832	0.333107	-2.40115
   148	 12.8368	 30.0432	 1.62103	-0.660708	-1.25007	-1.15204
   149	 12.9401	 28.9469	 2.40501	0.637036	 -2.1481	-1.24764
   150	 12.4616	 28.9291	 3.67274	0.868926	 1.29564	 3.43187
   151	 11.3142	 32.0828	 3.75605	 3.58241	 7.59968	 1.67272
   152	 12.4457	 27.9745	 4.25112	-5.14976	 2.67587	  3.7435
   153	 12.1205	  32.035	 1.49317	-2.93779	 2.40906	 1.98598
   154	 13.7649	 28.2866	 2.18458	  8.5597	 7.99744	 8.52845
   155	 13.3151	 30.0989	0.686907	 5.44663	-3.75279	-4.63043
   156	 11.4086	 29.8669	 5.12425	 1.56709	-9.98524	 5.03188
   157	 16.2129	 10.1662	 38.2844	 -2.0458	 2.23287	 4.20442
   158	  16.533	 11.5084	 38.4235	0.154868	-0.970392	-2.71108
   159	 15.8682	 12.4811	 37.7137	-2.05334	-0.0573402	 4.58548
   160	 15.2215	 12.0964	 36.5301	0.887953	0.434433	-2.00982
   161	 14.9904	  10.787	 36.2887	-0.400861	 1.55459	-3.10705
   162	 15.5574	 9.81076	 37.1417	0.528998	-1.48894	-1.66154
   163	 16.9498	 11.8837	 39.3486	-5.64253	 3.02529	 1.68573
   164	 15.2389	 8.75201	 37.0233	-4.76901	-3.62543	 2.28966
   165	 16.3495	 13.4628	 37.7979	 2.84435	-9.47167	-9.52751
   166	 14.1795	 10.3873	  35.675	-6.42032	-0.0404792	 7.94589
   167	 14.9186	 12.9065	  35.908	  1.6776	-1.62162	-9.56882
   168	 16.8183	 9.38472	 38.7531	 7.82981	-0.401787	-1.15394
   169	 15.1844	  25.709	 19.6088	-0.163293	-0.644201	-4.89032
   170	 15.0141	   25.46	 20.9374	-1.03072	-2.09642	-2.38611
   171	 15.7265	 26.2389	 21.9349	 2.28197	 1.79157	-0.455783
   172	 16.5976	 27.2322	 21.5535	0.345413	-1.33622	-0.387255
   173	 16.7119	 27.5068	 20.2168	-0.606506	 1.13259	  2.3981
   174	 16.0455	 26.7347	 19.2722	-1.73759	-1.67513	 0.90158
   175	 14.4886	  24.624	 21.3421	 9.38666	 1.83454	 6.96159
   176	  16.144	 27.0316	 18.2572	 -4.3959	 1.83636	 -3.7465
   177	 15.6301	 25.8819	 22.9551	 7.74568	-0.0411356	-0.572622
   178	 17.6374	 27.9145	 19.8926	 1.62258	-16.1248	 6.49964
   179	  17.001	 27.9749	 22.2235	-6.26181	 3.07874	   -2.58
   180	 14.6005	 25.2454	 18.8152	-2.50367	 2.37458	-0.77638
   181	 27.8867	 21.9878	 32.9423	 1.10643	 3.67201	-0.503674
   182	 26.6528	 21.4042	 32.9945	 -1.0217	-0.47443	0.728502
   183	 25.6696	 21.9604	  33.794	-0.364638	-0.194372	0.500322
   184	 25.9297	 23.0464	 34.5634	 1.45033	 0.23364	-0.450793
   185	   27.21	 23.5534	 34.5995	-2.52275	-2.35804	 1.05989
   186	 28.1979	 23.0475	 33.7792	-2.50898	-0.623088	0.297197
   187	  26.353	 20.6152	 32.2517	-13.2037	 2.24954	-1.01044
   188	 29.1936	 23.3919	 33.8579	  4.3697	-3.26055	 1.88862
   189	 24.6452	 21.5477	 33.7429	0.320054	 1.75311	-0.646351
   190	 27.2617	 24.5788	 34.8967	-10.2695	-4.02962	-12.8014
   191	 25.1183	 23.5196	  35.189	 -2.7926	 2.60124	  1.4455
   192	 28.6809	 21.5533	 32.4119	-3.07983	0.656335	 2.30244
   193	 25.8075	 26.5365	 6.08583	0.878632	 3.00656	0.264304
   194	 25.4154	 26.4573	 7.39146	0.781322	-0.438273	0.404719
   195	 26.0188	 27.4351	 8.23104	 1.08955	-1.17808	-1.24828
   196	  26.862	 28.3488	 7.70484	-1.44526	  1.5275	0.149124
   197	    27.3	 28.3714	 6.39918	-0.930728	 2.22597	0.171629
   198	  26.764	 27.3602	 5.55475	  1.1682	-0.323376	-2.34613
   199	 24.7974	 25.6966	 7.79848	 10.6627	 1.42472	-8.12774
   200	 26.9999	 27.4175	 4.52286	 3.60043	 12.2735	 7.60403
   201	 25.6865	 27.4181	 9.25056	 -1.8014	-3.55129	 1.40428
   202	 28.1737	   28.87	 6.08381	 7.62848	-0.627937	 9.19357
   203	 27.3476	 29.0036	  8.4184	 1.72282	0.182311	 8.46153
   204	 25.2481	 25.9157	 5.44889	 -1.6304	 9.07364	 1.30365
   205	 37.2513	   36.91	 16.4828	0.478711	-0.542618	-1.19667
   206	 37.9324	 37.9028	 17.2834	-0.923322	 0.32427	-1.53916
   207	 38.9119	 37.5066	 18.1794	0.302803	-0.934851	 -1.3097
   208	 39.2147	 36.1422	 18.3503	 2.26196	-0.838101	 0.32763
   209	 38.5462	 35.2438	 17.5933	 1.90106	 4.15932	0.475597
   210	 37.4451	 35.5852	 16.7446	-3.61862	 1.82783	  1.9708
   211	 37.5735	 38.8909	 17.2178	0.420917	-4.63299	 5.63758
   212	  36.875	 34.8162	 16.3043	-3.99532	-4.62385	 8.44318
   213	  39.498	 38.2705	 18.7005	 10.8618	 1.06988	 2.83963
   214	 38.8837	 34.2011	  17.426	 3.54115	-1.39102	-12.8219
   215	0.153821	 35.9879	 18.8522	 3.83054	-6.62915	-11.8392
   216	 36.4883	 37.2873	  15.811	 2.42617	  2.2727	 3.93718
   217	 24.2015	 2.50987	 24.0775	-0.191129	  2.4986	-0.949433
   218	  24.167	 2.04925	 25.3555	0.820745	0.192967	 1.67835
   219	 23.0413	 1.92517	   26.19	-2.45788	-0.0493484	 1.25173
   220	 21.8563	 2.29178	 25.6455	-3.07042	-0.148772	0.655529
   221	 21.7797	 2.81374	 24.3783	0.588911	 1.51391	 2.71799
   222	 22.9218	 2.87742	 23.5402	0.103646	0.836714	0.971563
   223	  25.094	 1.76874	 25.8695	-9.29608	 4.02029	-1.06577
   224	 22.8705	 3.40657	 22.6097	-0.988982	 8.72945	 1.59023
   225	 23.1504	 1.88783	 27.2717	-2.10169	 11.9312	0.987028
   226	 20.8303	 2.74539	 23.9049	 6.07778	-12.3245	 2.75503
   227	 20.9287	 2.38074	  26.279	 2.55284	 3.03643	 3.32508
   228	 25.0732	 2.56225	 23.4458	 2.77205	 2.77734	-6.31153
   229	 22.0619	 20.0584	 37.2027	-0.209931	 0.15386	 1.44503
   230	  22.299	 21.4197	 37.3692	-3.36101	 1.10226	0.539503
   231	 23.3166	 21.9697	   38.15	 1.17879	0.470113	0.981614
   232	 24.0109	 21.0735	 38.9726	-2.87464	 1.31929	 1.56566
   233	 23.8685	 19.7085	 38.7844	0.189712	 1.34136	-1.75794
   234	 22.9264	 19.2077	 37.9346	 2.48014	-0.829177	-0.985822
   235	 21.5719	 22.0476	 36.8735	-5.87614	-3.17685	 6.03108
   236	 22.6562	 18.1502	 37.9607	-0.96894	-9.36177	 5.31554
   237	 23.5412	 23.0125	 38.1237	 6.53282	 3.26564	0.00781068
   238	  24.444	  19.004	 39.3437	-4.46876	0.00947967	-6.68782
   239	 24.9279	 21.4076	 39.3848	 6.56089	0.972283	-6.63703
   240	 21.4022	 19.6378	 36.4962	-0.622935	-11.5116	-6.12353
