ITEM: TIMESTEP
0
ITEM: NUMBER OF ATOMS
1200
ITEM: BOX BOUNDS
0	40
0	40
0	40
ITEM: ATOMS index type x y z
     1	1	    9.78	  20.683	   29.68
     2	1	   10.26	  20.989	  30.954
     3	1	  10.867	  19.999	  31.726
     4	1	  10.995	  18.704	  31.224
     5	1	  10.516	  18.398	   29.95
     6	1	   9.909	  19.389	  29.178
     7	1	   10.16	  21.998	  31.345
     8	1	   9.535	  19.151	  28.186
     9	1	   11.24	  20.236	  32.718
    10	1	  10.616	  17.389	   29.56
    11	1	  11.468	  17.932	  31.825
    12	1	   9.307	  21.455	  29.078
    13	1	  38.846	  33.242	  33.085
    14	1	   39.25	  34.329	  33.861
    15	1	  38.692	  35.588	  33.643
    16	1	   37.73	  35.761	  32.648
    17	1	  37.325	  34.675	  31.872
    18	1	  37.884	  33.415	  32.091
    19	1	      40	  34.193	  34.636
    20	1	  37.568	  32.569	  31.486
    21	1	  39.007	  36.434	  34.247
    22	1	  36.576	   34.81	  31.097
    23	1	  37.295	  36.742	  32.477
    24	1	  39.281	  32.261	  33.256
    25	1	   39.15	  23.478	  37.282
    26	1	   39.08	  24.224	  36.105
    27	1	  39.297	  25.601	  36.138
    28	1	  39.585	  26.232	  37.348
    29	1	  39.655	  25.487	  38.524
    30	1	  39.438	  24.109	  38.491
    31	1	  38.855	  23.732	  35.162
    32	1	  39.492	  23.528	  39.407
    33	1	  39.242	  26.182	  35.222
    34	1	   39.88	  25.979	  39.467
    35	1	  39.755	  27.306	  37.374
    36	1	   38.98	  22.405	  37.255
    37	1	  23.225	  37.419	  37.473
    38	1	  24.135	  38.216	  36.777
    39	1	  23.708	  38.965	  35.681
    40	1	  22.373	  38.919	  35.281
    41	1	  21.464	  38.123	  35.977
    42	1	  21.891	  37.373	  37.074
    43	1	  25.175	  38.252	  37.089
    44	1	  21.182	  36.753	  37.616
    45	1	  24.416	  39.586	  35.138
    46	1	  20.423	  38.087	  35.666
    47	1	   22.04	  39.503	  34.427
    48	1	  23.558	  36.835	  38.328
    49	1	  35.336	  22.942	  34.851
    50	1	  34.737	  21.859	  34.207
    51	1	  33.388	  21.914	  33.859
    52	1	  32.638	  23.053	  34.154
    53	1	  33.236	  24.135	  34.797
    54	1	  34.586	   24.08	  35.145
    55	1	  35.321	  20.972	  33.978
    56	1	  35.053	  24.923	  35.646
    57	1	   32.92	  21.071	  33.358
    58	1	  32.652	  25.022	  35.027
    59	1	  31.586	  23.096	  33.883
    60	1	  36.388	  22.899	  35.122
    61	1	  28.935	  28.459	    21.1
    62	1	  27.996	  29.347	  21.625
    63	1	   26.66	  29.259	  21.234
    64	1	  26.264	  28.284	  20.319
    65	1	  27.203	  27.398	  19.794
    66	1	  28.539	  27.485	  20.185
    67	1	  28.305	  30.106	  22.338
    68	1	  29.271	  26.794	  19.776
    69	1	  25.927	   29.95	  21.643
    70	1	  26.893	  26.638	   19.08
    71	1	  25.222	  28.216	  20.014
    72	1	  29.977	  28.528	  21.404
    73	1	   5.955	  26.791	  12.733
    74	1	   6.361	  25.806	  11.832
    75	1	   6.341	  26.064	  10.462
    76	1	   5.916	  27.307	   9.992
    77	1	    5.51	  28.291	  10.892
    78	1	    5.53	  28.032	  12.263
    79	1	   6.692	  24.838	  12.198
    80	1	   5.213	    28.8	  12.965
    81	1	   6.657	  25.297	    9.76
    82	1	   5.179	  29.259	  10.526
    83	1	     5.9	  27.508	   8.924
    84	1	    5.97	  26.589	  13.801
    85	1	  16.993	  27.804	  33.009
    86	1	  17.101	  28.718	  34.058
    87	1	  18.103	  29.687	  34.037
    88	1	  18.999	  29.742	  32.969
    89	1	  18.891	  28.828	  31.921
    90	1	  17.887	  27.859	  31.942
    91	1	  16.403	  28.675	   34.89
    92	1	  17.804	  27.147	  31.125
    93	1	  18.188	  30.399	  34.854
    94	1	  19.588	  28.871	  31.089
    95	1	   19.78	  30.497	  32.953
    96	1	  16.211	  27.049	  33.025
    97	1	   21.12	  35.671	  20.824
    98	1	  22.403	  35.295	  20.427
    99	1	  22.608	  34.741	  19.164
   100	1	   21.53	  34.563	  18.297
   101	1	  20.247	  34.939	  18.693
   102	1	  20.042	  35.493	  19.958
   103	1	  23.243	  35.433	  21.103
   104	1	  19.042	  35.786	  20.266
   105	1	  23.608	  34.448	  18.855
   106	1	  19.407	    34.8	  18.018
   107	1	  21.689	  34.131	  17.312
   108	1	   20.96	  36.103	  21.809
   109	1	  22.216	  29.358	   2.874
   110	1	  23.058	  30.176	   2.119
   111	1	   24.24	  30.662	   2.677
   112	1	   24.58	   30.33	   3.989
   113	1	  23.739	  29.513	   4.742
   114	1	  22.556	  29.026	   4.184
   115	1	  22.792	  30.434	   1.098
   116	1	  21.901	  28.389	   4.771
   117	1	  24.896	  31.299	    2.09
   118	1	  24.004	  29.254	   5.764
   119	1	  25.502	  30.709	   4.424
   120	1	  21.294	  28.979	   2.439
   121	1	  20.581	   0.847	   8.634
   122	1	  21.336	   0.484	    9.75
   123	1	  20.712	   0.303	  10.984
   124	1	  19.334	   0.486	  11.102
   125	1	   18.58	   0.849	   9.987
   126	1	  19.205	   1.029	   8.752
   127	1	  22.409	   0.341	   9.657
   128	1	  18.617	   1.312	   7.883
   129	1	  21.299	   0.021	  11.854
   130	1	  17.507	   0.991	  10.079
   131	1	  18.847	   0.345	  12.064
   132	1	  21.068	   0.987	   7.672
   133	1	  15.888	  23.028	  29.607
   134	1	  15.774	  23.059	  28.217
   135	1	   16.68	  22.351	  27.428
   136	1	    17.7	  21.613	  28.029
   137	1	  17.814	  21.582	  29.418
   138	1	  16.907	  22.291	  30.207
   139	1	  14.979	  23.634	  27.749
   140	1	  16.995	  22.267	   31.29
   141	1	  16.592	  22.374	  26.345
   142	1	  18.608	  21.007	  29.886
   143	1	  18.407	  21.061	  27.414
   144	1	  15.181	   23.58	  30.222
   145	1	  15.066	  29.742	  18.746
   146	1	  14.336	  29.663	   17.56
   147	1	  14.411	  30.696	  16.626
   148	1	  15.215	  31.807	  16.878
   149	1	  15.945	  31.886	  18.063
   150	1	   15.87	  30.852	  18.998
   151	1	  13.709	  28.797	  17.364
   152	1	  16.439	  30.914	  19.921
   153	1	  13.842	  30.635	  15.702
   154	1	  16.572	  32.752	  18.259
   155	1	  15.274	  32.613	   16.15
   156	1	  15.008	  28.937	  19.474
   157	1	  39.871	  28.036	   7.254
   158	1	  39.772	  26.875	   6.487
   159	1	  39.721	  25.629	   7.111
   160	1	  39.769	  25.544	   8.503
   161	1	  39.868	  26.704	    9.27
   162	1	  39.919	  27.951	   8.644
   163	1	  39.735	  26.941	   5.403
   164	1	  39.996	  28.855	   9.242
   165	1	  39.644	  24.724	   6.515
   166	1	  39.906	  26.638	  10.354
   167	1	   39.73	  24.573	    8.99
   168	1	   39.91	  29.007	   6.767
   169	1	  14.985	  35.708	  33.212
   170	1	  14.466	  35.342	   31.97
   171	1	  13.527	  34.315	  31.882
   172	1	  13.107	  33.654	  33.036
   173	1	  13.625	  34.019	  34.277
   174	1	  14.565	  35.047	  34.365
   175	1	  14.793	  35.858	  31.071
   176	1	  14.969	  35.332	  35.333
   177	1	  13.122	   34.03	  30.915
   178	1	  13.298	  33.504	  35.176
   179	1	  12.374	  32.853	  32.968
   180	1	  15.717	  36.509	   33.28
   181	1	   25.82	   6.319	  33.707
   182	1	   26.04	   7.692	  33.826
   183	1	  25.598	   8.372	   34.96
   184	1	  24.937	    7.68	  35.975
   185	1	  24.717	   6.309	  35.856
   186	1	   25.16	   5.628	  34.721
   187	1	  26.555	   8.231	  33.036
   188	1	  24.989	   4.559	  34.629
   189	1	  25.769	   9.441	  35.054
   190	1	  24.202	    5.77	  36.647
   191	1	  24.592	   8.211	   36.86
   192	1	  26.165	   5.789	  32.823
   193	1	  28.925	  29.736	  37.961
   194	1	  28.392	  30.993	  37.674
   195	1	  28.973	  32.137	   38.22
   196	1	  30.086	  32.024	  39.054
   197	1	  30.618	  30.768	  39.341
   198	1	  30.037	  29.623	  38.794
   199	1	  27.525	   31.08	  37.025
   200	1	  30.452	  28.644	  39.018
   201	1	  28.559	  33.116	  37.997
   202	1	  31.485	   30.68	   39.99
   203	1	  30.539	  32.916	   39.48
   204	1	  28.472	  28.844	  37.535
   205	1	  28.332	   8.689	  39.183
   206	1	  28.818	   9.993	  39.273
   207	1	  27.948	  11.042	  39.567
   208	1	  26.592	  10.787	   39.77
   209	1	  26.106	   9.483	   39.68
   210	1	  26.977	   8.434	  39.386
   211	1	  29.875	  10.192	  39.115
   212	1	  26.599	   7.418	  39.316
   213	1	  28.326	  12.059	  39.637
   214	1	  25.049	   9.285	  39.838
   215	1	  25.913	  11.605	  39.999
   216	1	  29.011	   7.871	  38.954
   217	1	  18.304	   5.322	   2.117
   218	1	  16.967	   5.718	   2.132
   219	1	  16.641	   7.074	   2.125
   220	1	  17.653	   8.034	   2.102
   221	1	   18.99	   7.639	   2.086
   222	1	  19.315	   6.282	   2.093
   223	1	  16.179	    4.97	    2.15
   224	1	  20.357	   5.974	   2.081
   225	1	  15.599	   7.383	   2.137
   226	1	  19.778	   8.387	   2.068
   227	1	  17.399	   9.091	   2.096
   228	1	  18.558	   4.265	   2.122
   229	1	   4.153	  23.835	  18.526
   230	1	   4.201	  22.511	   18.09
   231	1	   3.024	  21.849	  17.739
   232	1	     1.8	  22.512	  17.825
   233	1	   1.752	  23.836	  18.261
   234	1	    2.93	  24.497	  18.612
   235	1	   5.155	  21.994	  18.023
   236	1	   2.892	  25.528	  18.952
   237	1	   3.061	  20.818	  17.399
   238	1	   0.798	  24.352	  18.328
   239	1	   0.882	  21.997	  17.552
   240	1	   5.071	   24.35	    18.8
   241	1	   0.784	  14.772	  28.831
   242	1	   1.791	  14.094	  29.518
   243	1	   2.797	   14.81	  30.165
   244	1	   2.797	  16.205	  30.125
   245	1	   1.791	  16.882	  29.438
   246	1	   0.784	  16.165	   28.79
   247	1	   1.791	  13.008	   29.55
   248	1	       0	  16.694	  28.255
   249	1	   3.582	  14.283	  30.701
   250	1	   1.791	  17.969	  29.407
   251	1	   3.581	  16.764	  30.629
   252	1	       0	  14.213	  28.326
   253	1	  22.722	  17.673	   11.68
   254	1	  23.918	  18.379	  11.811
   255	1	  24.996	  17.804	  12.482
   256	1	  24.879	  16.524	  13.023
   257	1	  23.683	  15.818	  12.893
   258	1	  22.604	  16.394	  12.221
   259	1	  24.009	  19.376	  11.389
   260	1	  21.673	  15.844	  12.119
   261	1	  25.929	  18.353	  12.584
   262	1	  23.592	  14.821	  13.314
   263	1	  25.719	  16.075	  13.547
   264	1	  21.881	  18.121	  11.156
   265	1	  10.879	  12.582	  23.082
   266	1	  12.268	  12.454	  23.084
   267	1	  13.074	  13.592	  23.108
   268	1	   12.49	  14.859	  23.131
   269	1	  11.102	  14.987	   23.13
   270	1	  10.296	  13.848	  23.105
   271	1	  12.723	  11.467	  23.066
   272	1	   9.214	  13.949	  23.104
   273	1	  14.156	  13.492	  23.109
   274	1	  10.647	  15.974	  23.147
   275	1	  13.118	  15.746	   23.15
   276	1	  10.252	  11.695	  23.063
   277	1	   4.576	   36.26	  18.193
   278	1	     3.4	  35.607	  18.565
   279	1	   3.032	  35.549	  19.909
   280	1	   3.838	  36.143	   20.88
   281	1	   5.012	  36.796	  20.507
   282	1	   5.381	  36.854	  19.163
   283	1	   2.773	  35.143	  17.809
   284	1	   6.296	  37.363	  18.873
   285	1	   2.116	   35.04	    20.2
   286	1	    5.64	  37.259	  21.264
   287	1	    3.55	  36.098	  21.927
   288	1	   4.863	  36.305	  17.145
   289	1	  21.818	   2.596	  27.637
   290	1	  23.213	   2.614	   27.64
   291	1	  23.894	   3.831	  27.643
   292	1	   23.18	   5.029	  27.642
   293	1	  21.786	   5.011	  27.639
   294	1	  21.105	   3.793	  27.636
   295	1	  23.769	    1.68	  27.641
   296	1	  20.019	   3.779	  27.633
   297	1	  24.981	   3.846	  27.646
   298	1	   21.23	   5.945	  27.638
   299	1	  23.711	   5.978	  27.644
   300	1	  21.288	   1.647	  27.635
   301	1	  20.436	  34.673	   7.969
   302	1	  19.619	  35.166	   8.987
   303	1	  19.224	  36.503	   8.976
   304	1	  19.645	  37.347	   7.948
   305	1	  20.462	  36.854	   6.932
   306	1	  20.857	  35.516	   6.943
   307	1	  19.291	  34.509	   9.788
   308	1	  21.494	  35.132	    6.15
   309	1	  18.587	  36.888	   9.768
   310	1	   20.79	  37.511	   6.131
   311	1	  19.337	  38.389	    7.94
   312	1	  20.745	   33.63	   7.978
   313	1	  33.012	   19.95	  23.726
   314	1	  31.987	  19.192	  23.161
   315	1	  31.717	  19.291	  21.796
   316	1	  32.474	  20.148	  20.997
   317	1	  33.499	  20.906	  21.561
   318	1	  33.768	  20.806	  22.927
   319	1	  31.398	  18.524	  23.784
   320	1	  34.567	  21.397	  23.367
   321	1	  30.918	  18.701	  21.355
   322	1	  34.088	  21.574	  20.938
   323	1	  32.264	  20.226	  19.933
   324	1	  33.222	  19.872	   24.79
   325	1	   4.877	   3.983	  39.999
   326	1	   6.127	   4.602	  39.999
   327	1	   7.287	   3.829	  39.999
   328	1	   7.197	   2.436	      40
   329	1	   5.948	   1.818	      40
   330	1	   4.787	   2.593	  39.999
   331	1	   6.197	   5.687	  39.999
   332	1	   3.813	    2.11	  39.999
   333	1	   8.261	    4.31	      40
   334	1	   5.878	   0.734	      40
   335	1	   8.101	   1.833	      40
   336	1	   3.972	   4.587	  39.999
   337	1	   6.538	   8.989	   4.415
   338	1	   6.787	  10.358	   4.514
   339	1	   7.962	   10.81	   5.114
   340	1	   8.887	   9.894	   5.615
   341	1	   8.637	   8.526	   5.516
   342	1	   7.462	   8.074	   4.916
   343	1	   6.067	  11.072	   4.124
   344	1	   7.267	   7.007	   4.839
   345	1	   8.158	  11.876	   5.191
   346	1	   9.358	   7.812	   5.906
   347	1	   9.803	  10.246	   6.082
   348	1	   5.622	   8.636	   3.948
   349	1	  35.999	  23.317	  24.585
   350	1	  35.141	  22.837	  25.574
   351	1	   35.56	  21.815	  26.425
   352	1	  36.838	  21.273	  26.287
   353	1	  37.696	  21.753	  25.299
   354	1	  37.276	  22.776	  24.447
   355	1	  34.145	  23.259	  25.682
   356	1	  37.945	  23.149	  23.677
   357	1	  34.892	   21.44	  27.196
   358	1	  38.692	  21.331	  25.191
   359	1	  37.166	  20.476	   26.95
   360	1	  35.672	  24.114	  23.922
   361	1	  12.167	   13.93	  38.576
   362	1	    12.8	  15.139	   38.87
   363	1	  14.161	  15.156	  39.175
   364	1	  14.888	  13.966	  39.186
   365	1	  14.256	  12.759	  38.893
   366	1	  12.894	  12.742	  38.588
   367	1	  12.233	  16.065	  38.861
   368	1	  12.402	  11.801	  38.359
   369	1	  14.655	  16.097	  39.404
   370	1	  14.823	  11.832	  38.902
   371	1	  15.949	  13.979	  39.424
   372	1	  11.107	  13.917	  38.339
   373	1	  39.077	  34.034	   1.865
   374	1	  39.064	  32.663	   2.126
   375	1	  37.853	  32.008	   2.347
   376	1	  36.655	  32.723	   2.306
   377	1	  36.669	  34.092	   2.045
   378	1	  37.881	  34.748	   1.825
   379	1	  39.996	  32.107	   2.158
   380	1	  37.891	  35.815	   1.622
   381	1	  37.841	  30.941	    2.55
   382	1	  35.736	  34.649	   2.014
   383	1	  35.711	  32.212	   2.478
   384	1	  40.021	  34.544	   1.693
   385	1	  27.605	  34.109	  15.224
   386	1	  26.466	  34.068	  16.029
   387	1	  25.821	  32.854	  16.261
   388	1	  26.314	  31.681	  15.689
   389	1	  27.452	  31.722	  14.885
   390	1	  28.098	  32.937	  14.652
   391	1	  26.082	  34.981	  16.474
   392	1	  28.985	  32.969	  14.025
   393	1	  24.934	  32.821	  16.888
   394	1	  27.836	  30.808	  14.439
   395	1	  25.811	  30.734	   15.87
   396	1	  28.108	  35.055	  15.043
   397	1	  10.257	  38.739	  24.593
   398	1	  10.331	   38.47	   25.96
   399	1	   11.52	    38.7	  26.652
   400	1	  12.634	  39.199	  25.976
   401	1	   12.56	  39.467	   24.61
   402	1	   11.37	  39.237	  23.919
   403	1	   9.463	  38.082	  26.486
   404	1	  11.312	  39.446	  22.854
   405	1	  11.579	  38.491	  27.716
   406	1	  13.428	  39.856	  24.084
   407	1	  13.561	  39.379	  26.515
   408	1	    9.33	  38.559	  24.054
   409	1	    27.6	  37.326	  11.843
   410	1	  28.265	  37.867	  10.742
   411	1	   29.29	  38.793	  10.934
   412	1	   29.65	  39.178	  12.225
   413	1	  28.986	  38.637	  13.325
   414	1	   27.96	   37.71	  13.133
   415	1	  27.984	  37.567	   9.736
   416	1	  27.443	  37.289	  13.991
   417	1	  29.808	  39.215	  10.077
   418	1	  29.266	  38.937	  14.331
   419	1	  30.449	    39.9	  12.374
   420	1	  26.801	  36.604	  11.694
   421	1	  11.955	  32.145	   9.017
   422	1	  11.923	  30.794	   9.363
   423	1	  11.755	  30.419	  10.695
   424	1	   11.62	  31.395	  11.682
   425	1	  11.652	  32.746	  11.337
   426	1	  11.819	   33.12	  10.004
   427	1	  12.028	  30.034	   8.593
   428	1	  11.844	  34.173	   9.735
   429	1	   11.73	  29.367	  10.965
   430	1	  11.546	  33.506	  12.107
   431	1	  11.489	  31.103	  12.721
   432	1	  12.085	  32.437	   7.978
   433	1	  30.422	  29.323	   9.472
   434	1	  31.449	  28.499	   9.012
   435	1	  31.547	  27.185	   9.469
   436	1	  30.617	  26.695	  10.387
   437	1	  29.591	  27.519	  10.847
   438	1	  29.493	  28.833	  10.389
   439	1	  32.173	  28.881	   8.297
   440	1	  28.693	  29.475	  10.748
   441	1	  32.347	  26.543	   9.111
   442	1	  28.867	  27.137	  11.562
   443	1	  30.693	  25.671	  10.743
   444	1	  30.346	  30.347	   9.115
   445	1	  16.802	  20.231	  21.927
   446	1	  17.959	  20.996	  21.774
   447	1	  18.161	  22.121	  22.573
   448	1	  17.207	   22.48	  23.526
   449	1	  16.052	  21.715	  23.679
   450	1	   15.85	   20.59	  22.879
   451	1	  18.701	  20.716	  21.031
   452	1	  14.949	  19.993	  22.999
   453	1	  19.061	  22.718	  22.454
   454	1	  15.309	  21.995	  24.421
   455	1	  17.365	  23.357	  24.149
   456	1	  16.645	  19.354	  21.304
   457	1	  15.162	  16.721	  11.404
   458	1	  16.364	  17.289	  11.826
   459	1	  17.335	   17.64	  10.889
   460	1	  17.104	  17.423	    9.53
   461	1	  15.903	  16.855	   9.109
   462	1	  14.931	  16.504	  10.047
   463	1	  16.544	  17.458	  12.884
   464	1	  13.995	  16.061	   9.719
   465	1	  18.272	  18.083	  11.216
   466	1	  15.723	  16.685	   8.051
   467	1	  17.861	  17.696	   8.799
   468	1	  14.405	  16.447	  12.135
   469	1	  20.738	  19.698	  38.576
   470	1	  22.004	  20.263	  38.415
   471	1	  22.237	  21.577	   38.82
   472	1	  21.204	  22.326	  39.385
   473	1	   19.94	  21.762	  39.545
   474	1	  19.707	  20.447	   39.14
   475	1	  22.808	  19.679	  37.976
   476	1	  18.721	  20.007	  39.264
   477	1	  23.222	  22.017	  38.695
   478	1	  19.136	  22.346	  39.984
   479	1	  21.386	   23.35	    39.7
   480	1	  20.557	  18.674	   38.26
   481	1	  35.308	   34.78	  12.551
   482	1	   34.08	  35.442	  12.539
   483	1	  33.093	  35.063	   11.63
   484	1	  33.334	  34.022	  10.733
   485	1	  34.561	  33.361	  10.745
   486	1	  35.548	  33.741	  11.655
   487	1	  33.893	  36.253	  13.238
   488	1	  36.505	  33.225	  11.664
   489	1	  32.136	  35.578	   11.62
   490	1	  34.748	   32.55	  10.046
   491	1	  32.564	  33.727	  10.024
   492	1	  36.078	  35.076	   13.26
   493	1	  27.229	   20.83	   31.08
   494	1	  26.608	  19.927	  30.217
   495	1	   27.27	  18.762	  29.833
   496	1	  28.554	  18.499	  30.313
   497	1	  29.174	    19.4	  31.176
   498	1	  28.511	  20.567	  31.559
   499	1	  25.608	  20.132	  29.843
   500	1	  28.995	  21.269	  32.232
   501	1	  26.787	  18.058	   29.16
   502	1	  30.174	  19.195	  31.549
   503	1	   29.07	   17.59	  30.013
   504	1	  26.713	  21.738	   31.38
   505	1	   3.867	   7.592	  21.766
   506	1	   4.066	   8.747	   21.01
   507	1	   4.663	   8.663	  19.752
   508	1	   5.059	   7.423	  19.251
   509	1	    4.86	   6.268	  20.006
   510	1	   4.263	   6.353	  21.264
   511	1	   3.757	   9.713	  21.401
   512	1	   4.107	   5.453	  21.853
   513	1	   4.819	   9.562	  19.163
   514	1	   5.169	   5.303	  19.615
   515	1	   5.525	   7.357	   18.27
   516	1	   3.401	   7.658	  22.746
   517	1	  39.134	  13.204	    6.94
   518	1	  38.799	  11.851	   6.972
   519	1	  38.889	  11.139	   8.168
   520	1	  39.315	  11.781	   9.331
   521	1	  39.651	  13.134	   9.298
   522	1	   39.56	  13.846	   8.102
   523	1	  38.467	  11.351	   6.066
   524	1	  39.822	    14.9	   8.076
   525	1	  38.628	  10.085	   8.195
   526	1	  39.983	  13.634	  10.204
   527	1	  39.386	  11.227	  10.264
   528	1	  39.064	  13.759	   6.007
   529	1	   9.669	   4.656	   29.75
   530	1	   9.183	   5.872	  30.232
   531	1	   9.352	   7.036	  29.484
   532	1	  10.007	   6.985	  28.253
   533	1	  10.492	   5.771	  27.771
   534	1	  10.323	   4.606	   28.52
   535	1	   8.673	   5.911	  31.191
   536	1	  10.702	   3.659	  28.144
   537	1	   8.974	   7.983	  29.859
   538	1	  11.002	   5.731	  26.812
   539	1	  10.138	   7.893	  27.669
   540	1	   9.537	   3.749	  30.333
   541	1	  24.311	  24.046	  22.093
   542	1	  23.023	  23.592	  22.376
   543	1	  22.111	  24.435	  23.011
   544	1	  22.488	  25.731	  23.364
   545	1	  23.776	  26.184	  23.081
   546	1	  24.688	  25.341	  22.445
   547	1	  22.729	  22.583	  22.101
   548	1	  25.691	  25.694	  22.225
   549	1	  21.107	  24.082	  23.232
   550	1	  24.069	  27.194	  23.356
   551	1	  21.778	  26.388	  23.859
   552	1	  25.022	  23.389	  21.598
   553	1	    7.78	   15.79	   3.574
   554	1	   8.784	   15.08	   2.916
   555	1	   8.522	  13.806	   2.413
   556	1	   7.256	  13.242	   2.568
   557	1	   6.252	  13.952	   3.226
   558	1	   6.514	  15.227	   3.729
   559	1	   9.771	   15.52	   2.796
   560	1	   5.732	  15.779	   4.241
   561	1	   9.304	  13.252	   1.901
   562	1	   5.265	  13.512	   3.346
   563	1	   7.051	  12.249	   2.177
   564	1	   7.984	  16.783	   3.966
   565	1	   7.506	  14.569	  16.844
   566	1	   8.869	  14.303	  16.704
   567	1	   9.288	  13.138	  16.062
   568	1	   8.346	   12.24	   15.56
   569	1	   6.985	  12.506	  15.701
   570	1	   6.565	  13.672	  16.343
   571	1	   9.602	  15.002	  17.094
   572	1	   5.504	  13.879	  16.452
   573	1	  10.349	   12.93	  15.952
   574	1	   6.251	  11.806	   15.31
   575	1	   8.673	  11.332	   15.06
   576	1	   7.179	  15.477	  17.344
   577	1	  11.268	   11.44	  28.378
   578	1	   10.39	  12.514	  28.231
   579	1	  10.791	   13.65	  27.528
   580	1	  12.069	  13.711	  26.971
   581	1	  12.946	  12.638	  27.118
   582	1	  12.545	  11.501	  27.822
   583	1	   9.395	  12.466	  28.664
   584	1	  13.229	  10.665	  27.937
   585	1	  10.107	  14.487	  27.413
   586	1	  13.941	  12.686	  26.685
   587	1	  12.381	  14.596	  26.423
   588	1	  10.956	  10.555	  28.926
   589	1	  21.424	  22.453	  33.002
   590	1	  22.672	  22.413	   32.38
   591	1	  22.847	  23.007	  31.131
   592	1	  21.775	   23.64	  30.503
   593	1	  20.527	   23.68	  31.125
   594	1	  20.352	  23.086	  32.375
   595	1	  23.508	  21.919	   32.87
   596	1	   19.38	  23.117	  32.859
   597	1	  23.819	  22.976	  30.646
   598	1	  19.692	  24.174	  30.636
   599	1	  21.911	  24.103	  29.529
   600	1	  21.287	   21.99	  33.976
   601	1	  29.928	   1.884	  38.771
   602	1	  30.899	   2.867	  38.959
   603	1	   30.53	   4.138	  39.398
   604	1	  29.188	   4.426	   39.65
   605	1	  28.217	   3.443	  39.462
   606	1	  28.587	   2.172	  39.022
   607	1	  31.945	   2.643	  38.763
   608	1	   27.83	   1.407	  38.875
   609	1	  31.286	   4.904	  39.545
   610	1	  27.171	   3.668	  39.658
   611	1	  28.899	   5.416	  39.992
   612	1	  30.216	   0.894	  38.428
   613	1	   35.62	  31.083	   33.37
   614	1	  34.818	  32.224	  33.397
   615	1	   35.25	  33.365	  34.072
   616	1	  36.486	  33.365	   34.72
   617	1	  37.288	  32.225	  34.694
   618	1	  36.854	  31.083	  34.018
   619	1	  33.856	  32.223	  32.891
   620	1	   37.48	  30.195	  33.997
   621	1	  34.626	  34.254	  34.093
   622	1	   38.25	  32.225	  35.199
   623	1	  36.823	  34.254	  35.246
   624	1	  35.283	  30.194	  32.844
   625	1	  13.087	  27.007	  30.989
   626	1	   13.58	  26.447	  32.168
   627	1	  13.696	  27.229	  33.316
   628	1	  13.318	  28.572	  33.286
   629	1	  12.825	  29.131	  32.108
   630	1	  12.709	  28.348	  30.959
   631	1	  13.874	  25.401	  32.191
   632	1	  12.325	  28.784	  30.041
   633	1	   14.08	  26.794	  34.234
   634	1	  12.531	  30.177	  32.085
   635	1	  13.408	  29.182	  34.181
   636	1	  12.997	  26.396	  30.094
   637	1	  10.216	   36.14	  16.319
   638	1	  11.258	   35.23	   16.14
   639	1	  12.581	  35.654	  16.255
   640	1	  12.862	  36.989	   16.55
   641	1	   11.82	  37.898	  16.729
   642	1	  10.497	  37.473	  16.614
   643	1	  11.039	   34.19	   15.91
   644	1	   9.685	  38.181	  16.753
   645	1	  13.393	  34.946	  16.116
   646	1	   12.04	  38.937	  16.959
   647	1	  13.894	   37.32	   16.64
   648	1	   9.184	  35.808	  16.229
   649	1	  30.472	  11.798	  23.437
   650	1	  30.506	  10.588	  22.743
   651	1	  31.436	  10.397	  21.722
   652	1	  32.331	  11.416	  21.394
   653	1	  32.297	  12.625	  22.088
   654	1	  31.366	  12.815	   23.11
   655	1	  29.809	   9.795	  22.999
   656	1	   31.34	  13.758	   23.65
   657	1	  31.463	   9.455	  21.181
   658	1	  32.994	  13.418	  21.832
   659	1	  33.056	  11.267	  20.598
   660	1	  29.747	  11.947	  24.234
   661	1	  13.295	  34.517	  27.352
   662	1	  12.251	  34.384	  26.436
   663	1	  12.427	  33.616	  25.286
   664	1	  13.646	  32.979	  25.052
   665	1	  14.689	  33.112	  25.967
   666	1	  14.513	  33.881	  27.118
   667	1	  11.301	   34.88	  26.619
   668	1	  15.326	  33.984	  27.831
   669	1	  11.614	  33.512	  24.572
   670	1	  15.639	  32.616	  25.785
   671	1	  13.783	   32.38	  24.155
   672	1	  13.158	  35.116	  28.249
   673	1	   3.458	   2.246	    33.8
   674	1	   4.409	   2.309	  34.818
   675	1	   4.142	   1.729	  36.058
   676	1	   2.924	   1.086	  36.279
   677	1	   1.973	   1.023	  35.261
   678	1	   2.241	   1.604	   34.02
   679	1	   5.358	    2.81	  34.646
   680	1	     1.5	   1.555	  33.227
   681	1	   4.882	   1.777	  36.852
   682	1	   1.025	   0.522	  35.433
   683	1	   2.715	   0.633	  37.245
   684	1	   3.667	   2.699	  32.833
   685	1	  11.627	  25.206	   2.985
   686	1	  10.966	  24.591	   4.049
   687	1	  11.064	  23.212	   4.226
   688	1	  11.822	  22.447	   3.339
   689	1	  12.481	  23.061	   2.276
   690	1	  12.384	  24.442	   2.099
   691	1	  10.376	  25.188	    4.74
   692	1	  12.898	   24.92	    1.27
   693	1	   10.55	  22.732	   5.055
   694	1	  13.072	  22.465	   1.585
   695	1	  11.898	  21.371	   3.477
   696	1	  11.551	  26.282	   2.847
   697	1	  12.715	  11.733	   14.49
   698	1	  12.016	  10.595	  14.085
   699	1	    11.7	   9.604	  15.013
   700	1	  12.083	   9.751	  16.347
   701	1	  12.781	  10.888	  16.751
   702	1	  13.097	  11.879	  15.822
   703	1	  11.718	  10.481	  13.046
   704	1	  13.641	  12.765	  16.137
   705	1	  11.156	   8.718	  14.699
   706	1	  13.079	  11.001	   17.79
   707	1	  11.837	   8.978	  17.071
   708	1	  12.961	  12.505	  13.765
   709	1	   7.001	   36.97	   3.512
   710	1	   6.521	  36.601	   2.255
   711	1	   5.543	  37.372	   1.628
   712	1	   5.045	  38.513	   2.258
   713	1	   5.525	  38.882	   3.514
   714	1	   6.504	   38.11	   4.141
   715	1	   6.909	  35.712	   1.764
   716	1	   6.877	  38.397	    5.12
   717	1	   5.169	  37.086	   0.649
   718	1	   5.137	  39.771	   4.005
   719	1	   4.283	  39.115	    1.77
   720	1	   7.764	  36.368	       4
   721	1	  37.342	  35.276	   16.54
   722	1	  37.151	  33.959	   16.12
   723	1	  35.869	  33.504	  15.815
   724	1	  34.777	  34.365	  15.929
   725	1	  34.968	  35.681	  16.349
   726	1	  36.251	  36.136	  16.654
   727	1	  38.002	  33.289	  16.031
   728	1	    36.4	  37.162	  16.981
   729	1	   35.72	  32.478	  15.488
   730	1	  34.118	  36.352	  16.438
   731	1	  33.778	  34.011	  15.692
   732	1	  38.342	  35.631	  16.778
   733	1	  36.685	  19.516	  29.246
   734	1	  37.898	  18.826	  29.279
   735	1	  39.075	    19.5	  29.601
   736	1	   39.04	  20.864	  29.891
   737	1	  37.829	  21.554	  29.858
   738	1	  36.651	  20.879	  29.535
   739	1	  37.924	  17.763	  29.053
   740	1	  35.707	  21.416	  29.509
   741	1	  40.019	  18.963	  29.627
   742	1	  37.802	  22.617	  30.083
   743	1	  39.958	   21.39	  30.142
   744	1	  35.768	   18.99	  28.995
   745	1	  23.804	  14.004	   7.125
   746	1	  22.536	  13.441	   6.979
   747	1	    22.4	   12.06	   6.835
   748	1	  23.531	  11.244	   6.837
   749	1	  24.798	  11.807	   6.983
   750	1	  24.934	  13.188	   7.128
   751	1	  21.655	  14.077	   6.978
   752	1	  25.921	  13.627	   7.241
   753	1	  21.412	  11.621	   6.721
   754	1	  25.678	  11.171	   6.985
   755	1	  23.424	  10.168	   6.725
   756	1	   23.91	   15.08	   7.238
   757	1	  31.134	  19.095	  35.787
   758	1	  31.674	   18.77	  37.032
   759	1	   30.83	  18.521	  38.114
   760	1	  29.446	  18.597	  37.951
   761	1	  28.907	  18.922	  36.707
   762	1	  29.752	  19.171	  35.625
   763	1	  32.751	  18.711	  37.158
   764	1	  29.331	  19.425	  34.656
   765	1	   31.25	  18.267	  39.083
   766	1	  27.829	  18.981	  36.581
   767	1	  28.789	  18.403	  38.794
   768	1	  31.792	   19.29	  34.944
   769	1	   3.689	  17.625	  26.391
   770	1	   3.949	  16.695	  27.398
   771	1	   4.979	  16.924	  28.309
   772	1	    5.75	  18.082	  28.213
   773	1	   5.491	  19.012	  27.206
   774	1	   4.459	  18.782	  26.295
   775	1	   3.348	  15.792	  27.473
   776	1	   4.257	  19.506	  25.511
   777	1	   5.182	    16.2	  29.094
   778	1	   6.092	  19.914	  27.132
   779	1	   6.554	  18.261	  28.923
   780	1	   2.885	  17.446	  25.681
   781	1	  36.625	  28.497	  28.104
   782	1	   37.82	  28.938	  28.674
   783	1	  39.034	  28.394	  28.257
   784	1	  39.054	  27.408	  27.269
   785	1	   37.86	  26.967	    26.7
   786	1	  36.645	  27.512	  27.118
   787	1	  37.804	  29.706	  29.443
   788	1	  35.715	  27.168	  26.674
   789	1	  39.965	  28.737	    28.7
   790	1	  37.876	  26.199	  25.931
   791	1	      40	  26.984	  26.944
   792	1	  35.679	  28.921	  28.429
   793	1	  36.864	  28.184	  23.345
   794	1	  35.888	  28.758	   22.53
   795	1	  36.187	  29.896	  21.781
   796	1	  37.462	  30.458	  21.846
   797	1	  38.437	  29.884	  22.659
   798	1	  38.138	  28.746	  23.409
   799	1	  34.895	   28.32	   22.48
   800	1	  38.898	  28.298	  24.043
   801	1	  35.427	  30.344	  21.147
   802	1	   39.43	  30.322	   22.71
   803	1	  37.695	  31.345	  21.262
   804	1	  36.631	  27.297	  23.929
   805	1	   29.39	  13.765	  36.071
   806	1	    30.5	  14.556	  36.365
   807	1	  31.684	  14.393	  35.646
   808	1	  31.757	  13.437	  34.632
   809	1	  30.647	  12.646	  34.337
   810	1	  29.463	   12.81	  35.057
   811	1	  30.443	    15.3	  37.155
   812	1	  28.599	  12.194	  34.827
   813	1	  32.549	  15.009	  35.875
   814	1	  30.704	  11.903	  33.547
   815	1	  32.679	   13.31	  34.071
   816	1	  28.468	  13.892	  36.632
   817	1	  24.682	  35.014	   30.68
   818	1	  23.554	  34.572	   31.37
   819	1	  22.926	  33.386	  30.993
   820	1	  23.427	  32.641	  29.925
   821	1	  24.555	  33.083	  29.235
   822	1	  25.183	   34.27	  29.613
   823	1	  23.163	  35.153	  32.202
   824	1	  26.062	  34.614	  29.075
   825	1	  22.047	  33.041	  31.531
   826	1	  24.945	  32.502	  28.403
   827	1	  22.938	  31.716	  29.631
   828	1	  25.171	   35.94	  30.974
   829	1	   5.686	   17.84	  14.926
   830	1	   4.372	  17.794	   14.46