ITEM: TIMESTEP
0
ITEM: NUMBER OF ATOMS
240
ITEM: BOX BOUNDS
0	40
0	40
0	40
ITEM: ATOMS index type x y z
     1	1	  22.847	   1.764	  35.714
     2	1	  23.185	   2.208	  34.435
     3	1	  22.595	   3.361	  33.919
     4	1	  21.668	   4.071	  34.683
     5	1	  21.331	   3.628	  35.962
     6	1	  21.922	   2.474	  36.477
     7	1	  23.907	   1.655	   33.84
     8	1	  21.659	   2.128	  37.473
     9	1	  22.857	   3.707	  32.924
    10	1	  20.609	   4.182	  36.555
    11	1	  21.208	    4.97	  34.281
    12	1	  23.308	   0.865	  36.116
    13	1	  30.713	  26.718	   2.754
    14	1	  29.674	   27.38	     2.1
    15	1	  29.848	  28.695	    1.67
    16	1	  31.061	  29.347	   1.892
    17	1	    32.1	  28.684	   2.546
    18	1	  31.925	  27.369	   2.976
    19	1	  28.729	  26.872	   1.927
    20	1	  32.734	  26.853	   3.486
    21	1	  29.039	  29.212	   1.161
    22	1	  33.044	  29.193	   2.719
    23	1	  31.197	  30.371	   1.557
    24	1	  30.577	  25.692	    3.09
    25	1	  35.404	    8.97	   8.252
    26	1	  35.643	   8.264	   7.072
    27	1	  36.556	   7.211	   7.063
    28	1	   37.23	   6.862	   8.234
    29	1	   36.99	   7.566	   9.414
    30	1	  36.076	    8.62	   9.422
    31	1	  35.118	   8.537	    6.16
    32	1	   35.89	   9.169	  10.341
    33	1	  36.744	   6.662	   6.145
    34	1	  37.515	   7.294	  10.325
    35	1	  37.942	   6.041	   8.227
    36	1	  34.691	   9.791	   8.259
    37	1	  29.786	   7.555	  10.331
    38	1	  31.063	   7.015	  10.175
    39	1	   32.16	   7.859	  10.008
    40	1	  31.981	   9.242	   9.996
    41	1	  30.704	   9.782	  10.153
    42	1	  29.607	   8.937	  10.321
    43	1	  31.203	   5.937	  10.184
    44	1	  28.612	   9.358	  10.442
    45	1	  33.154	    7.44	   9.885
    46	1	  30.565	   10.86	  10.144
    47	1	  32.835	   9.901	   9.866
    48	1	   28.93	   6.897	  10.462
    49	1	  25.135	   36.53	   3.788
    50	1	  24.865	  35.236	    3.34
    51	1	  25.427	   34.78	   2.149
    52	1	   26.26	  35.616	   1.405
    53	1	   26.53	   36.91	   1.852
    54	1	  25.967	  37.366	   3.045
    55	1	  24.216	  34.584	    3.92
    56	1	  26.177	  38.373	   3.393
    57	1	  25.217	  33.773	     1.8
    58	1	  27.178	   37.56	   1.272
    59	1	  26.698	  35.261	   0.477
    60	1	  24.696	  36.886	   4.717
    61	1	  10.207	   5.485	   4.877
    62	1	  10.966	   4.688	   5.735
    63	1	  12.204	   5.138	    6.19
    64	1	  12.684	   6.385	   5.788
    65	1	  11.925	   7.182	   4.931
    66	1	  10.685	   6.731	   4.476
    67	1	  10.592	   3.717	   6.048
    68	1	  10.094	   7.351	   3.808
    69	1	  12.796	   4.519	   6.857
    70	1	  12.299	   8.153	   4.618
    71	1	  13.649	   6.737	   6.143
    72	1	   9.241	   5.134	   4.522
    73	1	  21.821	  19.802	   11.22
    74	1	  22.049	  20.852	   10.33
    75	1	  21.352	   22.05	  10.474
    76	1	  20.427	    22.2	  11.507
    77	1	  20.199	   21.15	  12.398
    78	1	  20.898	  19.951	  12.254
    79	1	   22.77	  20.735	   9.525
    80	1	   20.72	  19.133	  12.947
    81	1	  21.528	  22.868	   9.781
    82	1	  19.479	  21.267	  13.203
    83	1	  19.883	  23.133	   11.62
    84	1	  22.366	  18.867	  11.109
    85	1	  37.513	   5.234	  30.981
    86	1	  37.368	   4.927	  29.627
    87	1	   36.38	   5.558	  28.872
    88	1	  35.538	   6.496	   29.47
    89	1	  35.683	   6.803	  30.823
    90	1	  36.672	   6.172	  31.578
    91	1	  38.024	   4.196	  29.162
    92	1	  36.785	    6.41	  32.632
    93	1	  36.266	    5.32	  27.819
    94	1	  35.027	   7.534	  31.287
    95	1	  34.768	   6.988	  28.882
    96	1	  38.283	   4.742	   31.57
    97	1	  26.986	  10.391	  36.344
    98	1	  27.199	  11.271	  37.405
    99	1	  26.297	  12.308	  37.641
   100	1	  25.182	  12.464	  36.817
   101	1	  24.969	  11.583	  35.756
   102	1	  25.872	  10.546	  35.521
   103	1	  28.067	   11.15	  38.047
   104	1	  25.706	    9.86	  34.695
   105	1	  26.462	  12.995	  38.466
   106	1	  24.101	  11.705	  35.115
   107	1	  24.479	  13.272	      37
   108	1	  27.689	   9.582	   36.16
   109	1	  28.333	  20.782	  18.109
   110	1	  28.221	  20.131	  19.339
   111	1	  27.211	  20.494	  20.229
   112	1	  26.313	  21.506	  19.889
   113	1	  26.424	  22.156	   18.66
   114	1	  27.435	  21.792	   17.77
   115	1	  28.921	  19.343	  19.603
   116	1	  27.523	  22.299	  16.812
   117	1	  27.123	  19.989	  21.186
   118	1	  25.724	  22.944	  18.397
   119	1	  25.525	  21.789	  20.583
   120	1	  29.121	  20.499	  17.415
   121	1	  13.367	  26.701	   7.008
   122	1	  12.798	   25.61	   6.349
   123	1	  13.506	  24.414	   6.243
   124	1	  14.782	  24.307	   6.797
   125	1	   15.35	  25.396	   7.457
   126	1	  14.642	  26.594	   7.563
   127	1	  11.805	  25.694	   5.917
   128	1	  15.085	  27.443	   8.076
   129	1	  13.064	  23.565	    5.73
   130	1	  16.344	  25.312	   7.888
   131	1	  15.334	  23.374	   6.716
   132	1	  12.815	  27.634	   7.091
   133	1	  19.771	  31.222	  30.988
   134	1	  18.603	  30.479	  31.161
   135	1	  17.878	  30.586	  32.347
   136	1	  18.321	  31.436	   33.36
   137	1	  19.489	  32.179	  33.188
   138	1	  20.213	  32.072	      32
   139	1	  18.258	  29.816	  30.371
   140	1	  21.124	   32.65	  31.865
   141	1	  16.969	  30.008	  32.483
   142	1	  19.834	  32.841	  33.977
   143	1	  17.757	   31.52	  34.285
   144	1	  20.336	  31.138	  30.063
   145	1	  11.744	  30.014	   4.158
   146	1	  11.633	  31.173	    3.39
   147	1	  12.195	   31.22	   2.114
   148	1	  12.867	  30.108	   1.607
   149	1	  12.977	  28.949	   2.374
   150	1	  12.414	  28.902	    3.65
   151	1	   11.11	   32.04	   3.785
   152	1	  12.501	  27.999	   4.248
   153	1	   12.11	  32.123	   1.516
   154	1	  13.501	  28.083	   1.978
   155	1	  13.305	  30.144	   0.613
   156	1	  11.305	  29.977	   5.152
   157	1	   16.31	  10.171	  38.232
   158	1	  16.533	  11.524	  38.493
   159	1	  15.976	  12.495	  37.662
   160	1	  15.195	  12.114	  36.571
   161	1	   14.97	  10.762	   36.31
   162	1	  15.528	   9.791	  37.142
   163	1	  17.142	   11.82	  39.343
   164	1	  15.354	   8.738	  36.939
   165	1	   16.15	  13.548	  37.863
   166	1	  14.362	  10.466	   35.46
   167	1	   14.76	   12.87	  35.923
   168	1	  16.744	   9.414	   38.88
   169	1	  15.203	  25.746	   19.65
   170	1	  15.017	  25.489	  21.009
   171	1	  15.705	   26.24	  21.961
   172	1	  16.579	  27.249	  21.555
   173	1	  16.765	  27.507	  20.197
   174	1	  16.076	  26.755	  19.244
   175	1	  14.336	  24.703	  21.325
   176	1	  16.221	  26.955	  18.186
   177	1	  15.561	   26.04	  23.019
   178	1	  17.446	  28.292	  19.881
   179	1	  17.116	  27.835	  22.296
   180	1	  14.666	  25.161	  18.908
   181	1	  27.947	  21.946	  32.967
   182	1	  26.663	    21.4	   32.97
   183	1	  25.669	   21.96	  33.771
   184	1	  25.959	  23.067	  34.569
   185	1	  27.242	  23.614	  34.566
   186	1	  28.236	  23.053	  33.763
   187	1	  26.437	  20.537	  32.348
   188	1	  29.236	  23.478	  33.761
   189	1	  24.669	  21.535	  33.775
   190	1	  27.467	  24.476	  35.188
   191	1	  25.185	  23.504	  35.194
   192	1	  28.721	  21.509	  32.341
   193	1	  25.781	  26.441	   6.066
   194	1	   25.41	  26.502	    7.41
   195	1	  25.985	  27.456	   8.248
   196	1	   26.93	  28.349	   7.744
   197	1	    27.3	  28.289	     6.4
   198	1	  26.724	  27.335	   5.561
   199	1	  24.674	  25.806	   7.803
   200	1	  27.013	  27.287	   4.515
   201	1	  25.698	  27.503	   9.295
   202	1	  28.036	  28.985	   6.008
   203	1	  27.379	  29.093	   8.397
   204	1	  25.332	  25.698	   5.412
   205	1	  37.246	  36.929	  16.515
   206	1	  37.912	  37.894	  17.271
   207	1	  38.882	  37.508	  18.195
   208	1	  39.188	  36.158	  18.363
   209	1	  38.523	  35.192	  17.606
   210	1	  37.552	  35.579	  16.682
   211	1	  37.674	  38.947	   17.14
   212	1	  37.033	  34.827	  16.093
   213	1	  39.401	  38.259	  18.785
   214	1	  38.761	  34.141	  17.738
   215	1	  39.944	  35.856	  19.083
   216	1	   36.49	   37.23	  15.794
   217	1	   24.17	    2.47	  24.053
   218	1	  24.251	   2.011	  25.368
   219	1	    23.1	   1.935	  26.151
   220	1	  21.868	   2.315	  25.619
   221	1	  21.787	   2.773	  24.303
   222	1	  22.939	   2.849	  23.521
   223	1	  25.211	   1.715	  25.783
   224	1	  22.876	   3.206	  22.496
   225	1	  23.162	   1.579	  27.175
   226	1	  20.827	   3.069	   23.89
   227	1	   20.97	   2.256	  26.228
   228	1	  25.068	   2.529	  23.442
   229	1	  22.113	  20.079	  37.201
   230	1	  22.338	  21.453	  37.294
   231	1	  23.323	  21.941	  38.152
   232	1	  24.083	  21.056	  38.916
   233	1	  23.859	  19.682	  38.822
   234	1	  22.874	  19.194	  37.963
   235	1	  21.745	  22.143	  36.699
   236	1	  22.698	  18.124	  37.891
   237	1	  23.498	   23.01	  38.226
   238	1	  24.452	  18.993	  39.417
   239	1	  24.851	  21.435	  39.584
   240	1	  21.345	  19.699	  36.532
ITEM: TIMESTEP
0.00244492
ITEM: NUMBER OF ATOMS
240
ITEM: BOX BOUNDS
0	40
0	40
0	40
ITEM: ATOMS index type x y z
     1	1	 22.8463	  1.7639	 35.7211
     2	1	 23.1874	 2.20789	 34.4308
     3	1	 22.5926	 3.35381	 33.9256
     4	1	  21.665	 4.06995	 34.6839
     5	1	 21.3277	 3.62244	 35.9628
     6	1	 21.9245	 2.47833	 36.4799
     7	1	 23.9082	 1.65857	 33.8611
     8	1	 21.6808	 2.15529	 37.4804
     9	1	  22.863	 3.69458	 32.9129
    10	1	 20.6332	 4.18164	 36.5623
    11	1	 21.2063	  4.9646	 34.2627
    12	1	  23.305	0.853744	 36.1082
    13	1	 30.7146	 26.7185	 2.75712
    14	1	 29.6717	 27.3828	 2.09731
    15	1	 29.8433	 28.6984	  1.6698
    16	1	 31.0641	 29.3404	  1.8937
    17	1	 32.0994	   28.69	 2.54545
    18	1	 31.9235	 27.3619	 2.98616
    19	1	 28.7163	 26.8632	 1.93168
    20	1	 32.7537	 26.8677	 3.48729
    21	1	  29.056	 29.2036	 1.15552
    22	1	 33.0473	 29.1925	 2.71778
    23	1	 31.2005	 30.3689	 1.53721
    24	1	 30.5797	 25.7186	 3.09377
    25	1	 35.4064	 8.96799	 8.25494
    26	1	 35.6412	 8.26275	 7.07714
    27	1	 36.5483	 7.21136	 7.06285
    28	1	 37.2256	 6.85686	 8.23142
    29	1	 36.9904	 7.55897	 9.42079
    30	1	 36.0808	 8.61752	 9.42104
    31	1	 35.1314	 8.54685	 6.15881
    32	1	 35.8966	  9.1738	 10.3455
    33	1	 36.7412	 6.65092	  6.1297
    34	1	 37.5218	 7.31755	 10.3134
    35	1	  37.951	 6.06915	 8.20798
    36	1	 34.6951	 9.79725	 8.25119
    37	1	 29.7931	 7.55365	 10.3265
    38	1	 31.0591	 7.02158	 10.1731
    39	1	 32.1594	 7.85073	 10.0066
    40	1	 31.9811	 9.24441	  9.9931
    41	1	 30.7085	 9.77873	 10.1538
    42	1	 29.5961	 8.93555	  10.327
    43	1	 31.2063	 5.94222	 10.1799
    44	1	 28.5979	 9.36467	 10.4272
    45	1	 33.1321	 7.43405	 9.90056
    46	1	 30.5523	 10.8586	  10.133
    47	1	 32.8361	 9.89608	 9.86398
    48	1	 28.9061	 6.89203	 10.4753
    49	1	 25.1354	 36.5314	 3.78927
    50	1	 24.8637	 35.2408	 3.33876
    51	1	 25.4206	 34.7818	 2.15226
    52	1	 26.2616	 35.6173	  1.4065
    53	1	 26.5255	 36.9041	 1.85309
    54	1	 25.9626	  37.367	  3.0481
    55	1	 24.2223	 34.5753	  3.9489
    56	1	 26.1722	 38.3733	 3.40303
    57	1	 25.2284	 33.7703	 1.80957
    58	1	  27.186	 37.5858	 1.29192
    59	1	 26.6782	 35.2575	0.486119
    60	1	 24.6661	 36.8921	 4.71988
    61	1	 10.1973	 5.48389	 4.88576
    62	1	  10.965	 4.69135	 5.73445
    63	1	 12.2018	 5.13644	 6.19095
    64	1	 12.6878	 6.38627	 5.79006
    65	1	 11.9222	 7.17886	 4.93463
    66	1	 10.6902	 6.73245	 4.47269
    67	1	  10.588	 3.73293	 6.04001
    68	1	 10.1036	 7.36242	 3.79665
    69	1	 12.8235	 4.52601	  6.8594
    70	1	 12.2975	 8.14787	 4.61235
    71	1	 13.6413	  6.7252	 6.14479
    72	1	 9.25329	 5.12549	 4.51538
    73	1	 21.8192	 19.8038	 11.2229
    74	1	 22.0463	 20.8482	 10.3416
    75	1	 21.3555	 22.0436	 10.4791
    76	1	  20.427	 22.1987	 11.5082
    77	1	 20.2042	 21.1568	 12.4009
    78	1	 20.8956	 19.9506	 12.2538
    79	1	 22.7756	 20.7135	 9.50535
    80	1	 20.7277	 19.1133	 12.9359
    81	1	  21.505	 22.8603	 9.76545
    82	1	  19.501	 21.2827	 13.1787
    83	1	  19.875	 23.1319	 11.6151
    84	1	 22.3475	 18.8718	 11.1087
    85	1	 37.5095	 5.22937	 30.9872
    86	1	 37.3688	 4.92975	 29.6272
    87	1	 36.3801	  5.5567	 28.8674
    88	1	 35.5388	 6.49255	 29.4735
    89	1	 35.6693	 6.79245	 30.8235
    90	1	 36.6641	 6.17764	 31.5837
    91	1	 38.0235	 4.19677	 29.1695
    92	1	 36.8045	  6.3989	 32.6165
    93	1	 36.2806	 5.31444	 27.8236
    94	1	  35.036	 7.53913	  31.289
    95	1	 34.7581	 7.00228	 28.8771
    96	1	 38.2465	 4.74011	 31.5555
    97	1	 26.9836	 10.3914	 36.3417
    98	1	 27.2029	  11.266	 37.4078
    99	1	 26.2968	 12.3068	 37.6383
   100	1	 25.1725	 12.4629	 36.8191
   101	1	 24.9572	  11.585	 35.7544
   102	1	 25.8665	  10.552	 35.5182
   103	1	   28.07	 11.1522	 38.0507
   104	1	 25.7172	  9.8485	 34.7074
   105	1	 26.4668	  13.005	  38.477
   106	1	 24.1104	 11.7044	 35.1268
   107	1	 24.4771	 13.2579	 37.0008
   108	1	 27.6824	 9.55437	 36.1754
   109	1	 28.3326	 20.7825	 18.1093
   110	1	 28.2267	 20.1274	 19.3397
   111	1	 27.2139	 20.4944	 20.2305
   112	1	 26.3114	 21.5141	 19.8883
   113	1	  26.424	 22.1465	 18.6604
   114	1	 27.4387	  21.791	 17.7695
   115	1	  28.917	 19.3587	 19.5888
   116	1	 27.5353	 22.3061	 16.7964
   117	1	 27.1462	 19.9922	  21.201
   118	1	 25.7137	  22.953	 18.3963
   119	1	 25.5242	 21.8116	 20.5863
   120	1	 29.1406	 20.4946	 17.4132
   121	1	 13.3626	 26.7003	 7.00382
   122	1	 12.8018	 25.6124	 6.34762
   123	1	 13.5072	 24.4107	 6.23874
   124	1	 14.7825	 24.3053	 6.79804
   125	1	 15.3512	 25.3948	 7.45497
   126	1	  14.639	 26.5965	  7.5654
   127	1	 11.7952	 25.6791	 5.93571
   128	1	 15.0835	 27.4593	 8.07562
   129	1	 13.0623	 23.5548	  5.7328
   130	1	 16.3556	 25.3297	 7.86884
   131	1	 15.3515	 23.3867	 6.72315
   132	1	 12.8329	 27.6333	 7.10411
   133	1	 19.7738	 31.2205	 30.9888
   134	1	 18.6072	 30.4857	 31.1591
   135	1	 17.8736	 30.5802	 32.3507
   136	1	 18.3174	 31.4371	 33.3626
   137	1	 19.4859	 32.1775	 33.1891
   138	1	 20.2132	 32.0717	 32.0014
   139	1	 18.2566	  29.854	 30.3393
   140	1	 21.1277	 32.6728	 31.8667
   141	1	 16.9906	 30.0134	 32.4951
   142	1	 19.8516	 32.8187	 33.9575
   143	1	 17.7572	 31.5298	 34.2881
   144	1	 20.3328	 31.1142	 30.0516
   145	1	 11.7415	 30.0148	 4.15227
   146	1	 11.6344	 31.1702	 3.39258
   147	1	 12.1989	 31.2137	 2.11767
   148	1	 12.8622	 30.1066	 1.60924
   149	1	 12.9728	 28.9489	 2.37845
   150	1	 12.4187	 28.9013	  3.6523
   151	1	 11.1312	 32.0576	 3.76184
   152	1	 12.5016	 28.0016	 4.23483
   153	1	 12.1236	 32.0941	 1.50531
   154	1	  13.533	 28.0938	 1.98216
   155	1	 13.2972	 30.1463	0.632164
   156	1	 11.2993	 29.9832	 5.16722
   157	1	 16.3024	 10.1671	 38.2384
   158	1	 16.5329	  11.522	 38.4886
   159	1	 15.9636	 12.4942	 37.6622
   160	1	 15.1969	 12.1098	 36.5685
   161	1	 14.9751	 10.7659	 36.3151
   162	1	 15.5269	 9.79719	 37.1384
   163	1	  17.123	 11.8243	 39.3408
   164	1	 15.3458	 8.74957	 36.9483
   165	1	 16.1678	 13.5468	 37.8649
   166	1	 14.3456	 10.4433	 35.4763
   167	1	  14.779	 12.8694	 35.9341
   168	1	  16.742	 9.42392	 38.8635
   169	1	 15.2014	 25.7434	 19.6506
   170	1	 15.0173	 25.4873	 21.0107
   171	1	 15.7017	 26.2347	 21.9555
   172	1	 16.5794	 27.2476	 21.5595
   173	1	 16.7607	 27.5076	 20.1948
   174	1	 16.0746	 26.7555	 19.2479
   175	1	 14.3588	 24.7104	 21.2894
   176	1	 16.2064	 26.9537	 18.1667
   177	1	  15.564	 26.0254	 22.9997
   178	1	 17.4558	 28.2539	 19.8583
   179	1	 17.1156	 27.8549	 22.3034
   180	1	 14.6682	  25.177	 18.9107
   181	1	 27.9407	 21.9479	 32.9644
   182	1	 26.6565	 21.4015	 32.9751
   183	1	  25.672	 21.9599	 33.7724
   184	1	 25.9492	 23.0633	 34.5699
   185	1	 27.2428	  23.612	 34.5709
   186	1	 28.2354	 23.0564	 33.7672
   187	1	 26.4531	 20.5414	 32.3318
   188	1	 29.2198	 23.4552	  33.761
   189	1	  24.655	 21.5226	 33.7658
   190	1	  27.462	 24.4929	 35.1641
   191	1	 25.1782	 23.4997	 35.1898
   192	1	 28.7221	 21.4948	 32.3307
   193	1	 25.7823	 26.4494	 6.07018
   194	1	 25.4095	 26.4967	 7.40625
   195	1	 25.9852	 27.4519	 8.24734
   196	1	 26.9239	 28.3489	 7.73991
   197	1	 27.3001	 28.2958	 6.39773
   198	1	  26.728	 27.3398	 5.56428
   199	1	 24.6808	 25.7986	 7.81801
   200	1	 27.0168	 27.3015	 4.51043
   201	1	 25.6992	 27.5014	 9.29905
   202	1	 28.0479	  28.974	  6.0081
   203	1	 27.3826	 29.0969	 8.39704
   204	1	 25.3173	 25.7091	 5.41516
   205	1	 37.2433	 36.9269	 16.5103
   206	1	 37.9144	 37.8945	  17.274
   207	1	 38.8833	 37.5146	  18.194
   208	1	  39.189	 36.1571	 18.3621
   209	1	 38.5264	 35.1902	 17.6063
   210	1	 37.5407	 35.5794	  16.687
   211	1	 37.6698	 38.9542	 17.1532
   212	1	 37.0132	 34.8302	 16.1071
   213	1	 39.4246	 38.2437	 18.7934
   214	1	  38.776	 34.1715	 17.7211
   215	1	 39.9735	 35.8539	 19.0748
   216	1	 36.4861	 37.2288	 15.7902
   217	1	 24.1732	 2.47413	 24.0533
   218	1	  24.243	 2.01417	 25.3684
   219	1	 23.0974	 1.93365	 26.1551
   220	1	 21.8657	 2.31199	 25.6263
   221	1	 21.7814	  2.7774	 24.3087
   222	1	 22.9354	 2.85205	  23.523
   223	1	 25.2028	 1.71321	 25.8088
   224	1	 22.8794	 3.22369	 22.5026
   225	1	 23.1676	 1.60235	 27.1926
   226	1	 20.8418	 3.04571	 23.8765
   227	1	 20.9612	 2.27275	 26.2148
   228	1	 25.0772	 2.52998	 23.4455
   229	1	  22.106	 20.0798	 37.1996
   230	1	 22.3386	 21.4501	 37.3051
   231	1	 23.3186	 21.9432	 38.1497
   232	1	 24.0781	 21.0606	 38.9226
   233	1	 23.8585	 19.6793	 38.8192
   234	1	  22.877	 19.1959	 37.9608
   235	1	 21.7296	 22.1349	 36.7147
   236	1	 22.7021	 18.1067	 37.9053
   237	1	 23.4969	 23.0103	 38.2141
   238	1	 24.4534	 18.9762	 39.4151
   239	1	 24.8494	 21.4606	  39.562
   240	1	 21.3571	 19.6948	 36.5382
ITEM: TIMESTEP
0.0033662
ITEM: NUMBER OF ATOMS
240
ITEM: BOX BOUNDS
0	40
0	40
0	40
ITEM: ATOMS index type x y z
     1	1	 22.8463	 1.76387	 35.7239
     2	1	 23.1886	 2.20786	 34.4292
     3	1	 22.5919	 3.35111	  33.928
     4	1	 21.6641	 4.06956	 34.6843
     5	1	 21.3267	 3.62036	 35.9631
     6	1	 21.9256	 2.47998	 36.4811
     7	1	  23.909	 1.65993	  33.869
     8	1	 21.6892	 2.16559	 37.4833
     9	1	 22.8655	 3.68991	 32.9088
    10	1	 20.6425	 4.18152	  36.565
    11	1	 21.2059	 4.96258	 34.2558
    12	1	 23.3041	0.849514	 36.1052
    13	1	 30.7155	 26.7187	 2.75832
    14	1	  29.671	 27.3838	 2.09632
    15	1	 29.8418	 28.6997	 1.66976
    16	1	 31.0655	 29.3379	 1.89436
    17	1	 32.0995	 28.6923	 2.54527
    18	1	 31.9232	 27.3593	    2.99
    19	1	 28.7118	 26.8599	 1.93347
    20	1	 32.7614	 26.8733	 3.48779
    21	1	 29.0626	 29.2005	 1.15348
    22	1	 33.0487	 29.1924	 2.71734
    23	1	  31.202	 30.3681	 1.52978
    24	1	  30.581	 25.7287	 3.09522
    25	1	 35.4076	 8.96725	 8.25607
    26	1	 35.6408	 8.26229	 7.07909
    27	1	 36.5457	 7.21151	 7.06282
    28	1	 37.2242	 6.85493	 8.23046
    29	1	 36.9908	 7.55633	 9.42337
    30	1	 36.0829	  8.6166	 9.42069
    31	1	 35.1368	 8.55057	 6.15839
    32	1	 35.8993	 9.17562	 10.3473
    33	1	 36.7404	 6.64676	 6.12395
    34	1	 37.5247	 7.32643	 10.3091
    35	1	 37.9546	 6.07977	 8.20083
    36	1	 34.6968	 9.79962	 8.24827
    37	1	  29.796	 7.55318	 10.3248
    38	1	 31.0565	 7.02399	 10.1726
    39	1	 32.1595	 7.84763	 10.0061
    40	1	 31.9814	 9.24534	 9.99203
    41	1	 30.7105	 9.77751	 10.1542
    42	1	 29.5922	 8.93501	 10.3293
    43	1	 31.2078	  5.9442	 10.1783
    44	1	  28.593	 9.36692	 10.4216
    45	1	 33.1241	 7.43182	 9.90644
    46	1	 30.5477	  10.858	 10.1288
    47	1	 32.8367	 9.89424	 9.86325
    48	1	 28.9134	 6.89113	 10.4781
    49	1	 25.1357	 36.5319	 3.78977
    50	1	 24.8634	 35.2427	 3.33831
    51	1	 25.4185	 34.7826	 2.15351
    52	1	 26.2631	 35.6191	 1.40701
    53	1	  26.524	 36.9019	 1.85352
    54	1	 25.9612	 37.3674	 3.04928
    55	1	 24.2249	  34.572	 3.95981
    56	1	 26.1706	 38.3734	 3.40683
    57	1	  25.233	 33.7692	 1.81319
    58	1	  27.182	 37.5799	 1.30036
    59	1	  26.671	 35.2562	0.489575
    60	1	 24.6551	 36.8944	 4.72099
    61	1	 10.1939	 5.48379	 4.88891
    62	1	 10.9661	 4.69251	 5.73503
    63	1	 12.2012	 5.13586	 6.19133
    64	1	 12.6895	 6.38675	 5.79086
    65	1	 11.9213	 7.17768	 4.93601
    66	1	 10.6924	 6.73301	 4.47146
    67	1	 10.5868	 3.73895	 6.03702
    68	1	 10.1077	 7.36313	 3.79448
    69	1	  12.819	 4.53001	 6.85115
    70	1	 12.2971	 8.14594	 4.61024
    71	1	 13.6386	 6.72077	 6.14549
    72	1	 9.25818	  5.1223	 4.51291
    73	1	 21.8188	 19.8045	  11.224
    74	1	 22.0455	 20.8467	 10.3459
    75	1	  21.358	 22.0404	 10.4805
    76	1	 20.4272	 22.1982	 11.5087
    77	1	 20.2071	 21.1585	 12.4018
    78	1	  20.895	 19.9504	 12.2538
    79	1	 22.7668	 20.7159	 9.50561
    80	1	 20.7283	 19.1161	  12.929
    81	1	 21.4966	 22.8574	 9.75961
    82	1	 19.5042	 21.2896	 13.1755
    83	1	 19.8723	 23.1314	 11.6132
    84	1	 22.3408	 18.8736	 11.1086
    85	1	 37.5069	 5.22866	 30.9883
    86	1	 37.3693	  4.9308	 29.6272
    87	1	 36.3804	 5.55629	 28.8658
    88	1	 35.5393	 6.49126	 29.4748
    89	1	 35.6644	 6.78848	 30.8238
    90	1	 36.6613	 6.17977	 31.5858
    91	1	 38.0236	 4.19707	 29.1723
    92	1	 36.8121	 6.39473	 32.6107
    93	1	 36.2863	 5.31235	 27.8253
    94	1	 35.0396	 7.54107	 31.2898
    95	1	 34.7556	 7.00685	 28.8753
    96	1	 38.2515	 4.72716	 31.5642
    97	1	  26.983	 10.3915	 36.3408
    98	1	 27.2046	 11.2641	 37.4089
    99	1	  26.297	 12.3064	 37.6373
   100	1	 25.1691	 12.4624	   36.82
   101	1	 24.9531	 11.5857	 35.7538
   102	1	  25.865	 10.5541	 35.5173
   103	1	 28.0713	 11.1531	 38.0522
   104	1	 25.7217	 9.84418	 34.7121
   105	1	 26.4687	 13.0087	  38.481
   106	1	 24.1142	 11.7041	 35.1312
   107	1	 24.4766	 13.2526	 37.0012
   108	1	 27.6764	 9.54606	 36.1799
   109	1	 28.3327	 20.7827	 18.1095
   110	1	 28.2291	 20.1261	   19.34
   111	1	 27.2152	 20.4945	  20.231
   112	1	 26.3114	 21.5165	 19.8887
   113	1	 26.4249	 22.1431	 18.6594
   114	1	 27.4404	 21.7906	 17.7693
   115	1	 28.9158	 19.3647	 19.5835
   116	1	 27.5317	 22.3076	 16.8048
   117	1	  27.151	 20.0011	 21.2001
   118	1	 25.7101	 22.9564	  18.396
   119	1	 25.5241	 21.8201	 20.5875
   120	1	 29.1483	  20.493	 17.4126
   121	1	 13.3613	    26.7	 7.00227
   122	1	 12.8036	 25.6133	 6.34712
   123	1	  13.509	 24.4088	 6.23746
   124	1	  14.783	 24.3047	 6.79845
   125	1	 15.3519	 25.3944	 7.45423
   126	1	 14.6381	 26.5974	 7.56632
   127	1	 11.7918	 25.6735	 5.94277
   128	1	 15.0833	 27.4652	 8.07542
   129	1	 13.0619	  23.551	 5.73388
   130	1	 16.3602	 25.3364	 7.86164
   131	1	 15.3447	 23.3992	  6.7223
   132	1	   12.84	  27.633	 7.10907
   133	1	 19.7761	  31.221	 30.9897
   134	1	 18.6091	 30.4882	 31.1585
   135	1	 17.8722	  30.578	  32.352
   136	1	 18.3162	 31.4376	 33.3636
   137	1	  19.485	  32.177	 33.1895
   138	1	 20.2137	 32.0709	 32.0006
   139	1	  18.256	 29.8689	 30.3289
   140	1	 21.1185	 32.6698	 31.8604
   141	1	 16.9991	 30.0154	 32.4997
   142	1	 19.8585	 32.8103	 33.9502
   143	1	 17.7589	 31.5302	 34.2956
   144	1	 20.3309	 31.1128	 30.0628
   145	1	 11.7408	 30.0151	 4.15013
   146	1	 11.6352	 31.1692	 3.39357
   147	1	 12.2006	 31.2114	 2.11907
   148	1	 12.8607	 30.1061	  1.6101
   149	1	 12.9715	 28.9488	 2.38014
   150	1	 12.4201	 28.9017	 3.65417
   151	1	 11.1395	 32.0643	 3.75313
   152	1	  12.502	 28.0025	 4.22988
   153	1	  12.129	 32.0832	  1.5013
   154	1	 13.5453	 28.0979	 1.98375
   155	1	 13.2945	 30.1472	0.639405
   156	1	 11.3061	 29.9771	 5.16118
   157	1	 16.2998	 10.1657	 38.2409
   158	1	 16.5331	 11.5213	  38.487
   159	1	 15.9591	 12.4939	 37.6623
   160	1	 15.1985	 12.1092	 36.5684
   161	1	 14.9773	 10.7674	 36.3171
   162	1	 15.5267	 9.79954	 37.1371
   163	1	 17.1161	 11.8259	   39.34
   164	1	 15.3429	 8.75394	 36.9519
   165	1	  16.167	 13.5347	 37.8551
   166	1	 14.3397	 10.4348	 35.4824
   167	1	 14.7864	 12.8692	 35.9382
   168	1	 16.7416	 9.42767	 38.8573
   169	1	 15.2011	 25.7425	 19.6509
   170	1	 15.0181	 25.4872	 21.0112
   171	1	 15.7015	 26.2338	 21.9537
   172	1	 16.5798	 27.2471	 21.5612
   173	1	  16.759	 27.5075	 20.1927
   174	1	 16.0743	 26.7557	 19.2493
   175	1	 14.3623	 24.7068	 21.2782
   176	1	 16.2054	 26.9574	 18.1747
   177	1	 15.5654	   26.02	 22.9925
   178	1	 17.4598	 28.2396	 19.8498
   179	1	 17.1053	 27.8505	 22.3036
   180	1	 14.6692	  25.183	 18.9118
   181	1	 27.9386	 21.9486	 32.9634
   182	1	 26.6543	 21.4021	  32.977
   183	1	 25.6733	 21.9598	  33.773
   184	1	 25.9457	 23.0619	 34.5703
   185	1	 27.2434	 23.6113	 34.5727
   186	1	 28.2356	  23.057	 33.7681
   187	1	 26.4595	  20.543	 32.3258
   188	1	  29.214	 23.4466	  33.761
   189	1	   24.65	 21.5179	 33.7624
   190	1	 27.4603	 24.4993	 35.1552
   191	1	  25.176	 23.4981	 35.1882
   192	1	 28.7201	 21.4983	  32.335
   193	1	  25.783	 26.4526	 6.07178
   194	1	 25.4096	 26.4948	 7.40485
   195	1	 25.9864	 27.4514	  8.2472
   196	1	 26.9219	 28.3488	 7.73838
   197	1	 27.3004	 28.2983	  6.3969
   198	1	 26.7298	 27.3416	 5.56553
   199	1	 24.6836	 25.7958	 7.82368
   200	1	 27.0185	 27.3069	 4.50872
   201	1	 25.6999	 27.5008	  9.3006
   202	1	 28.0526	 28.9699	 6.00816
   203	1	 27.3736	  29.086	 8.39595
   204	1	  25.312	 25.7132	 5.41637
   205	1	 37.2425	 36.9262	 16.5086
   206	1	 37.9165	  37.895	 17.2762
   207	1	 38.8841	 37.5169	 18.1937
   208	1	 39.1896	 36.1567	 18.3618
   209	1	 38.5278	 35.1903	 17.6064
   210	1	 37.5368	 35.5795	 16.6889
   211	1	 37.6684	 38.9569	 17.1582
   212	1	 37.0061	 34.8314	 16.1124
   213	1	 39.4221	 38.2352	 18.7848
   214	1	 38.7844	 34.1732	 17.7159
   215	1	 39.9839	 35.8546	  19.071
   216	1	 36.4849	 37.2284	 15.7887
   217	1	 24.1747	 2.47567	 24.0535
   218	1	 24.2403	 2.01537	 25.3686
   219	1	 23.0967	 1.93315	 26.1567
   220	1	 21.8652	 2.31087	 25.6291
   221	1	 21.7795	 2.77906	 24.3108
   222	1	 22.9343	 2.85321	 23.5237
   223	1	 25.1996	 1.71282	 25.8179
   224	1	 22.8809	 3.23037	  22.505
   225	1	 23.1699	 1.61116	 27.1993
   226	1	 20.8476	 3.03695	 23.8715
   227	1	 20.9581	 2.27907	 26.2099
   228	1	 25.0809	 2.53036	 23.4468
   229	1	 22.1041	 20.0789	 37.1996
   230	1	 22.3392	  21.449	 37.3093
   231	1	 23.3172	 21.9441	 38.1488
   232	1	 24.0766	 21.0619	 38.9252
   233	1	 23.8586	 19.6783	 38.8182
   234	1	 22.8784	 19.1967	 37.9599
   235	1	  21.724	 22.1318	 36.7207
   236	1	 22.6992	 18.1157	 37.9052
   237	1	 23.4967	 23.0105	 38.2097
   238	1	 24.4531	 18.9753	 39.4131
   239	1	 24.8491	 21.4702	 39.5538
   240	1	 21.3619	 19.6933	 36.5406
ITEM: TIMESTEP
0.00424657
ITEM: NUMBER OF ATOMS
240
ITEM: BOX BOUNDS
0	40
0	40
0	40
ITEM: ATOMS index type x y z
     1	1	 22.8462	 1.76402	 35.7265
     2	1	 23.1898	   2.208	 34.4277
     3	1	 22.5913	  3.3487	 33.9304
     4	1	 21.6636	 4.06924	 34.6841
     5	1	 21.3258	  3.6187	 35.9632
     6	1	 21.9268	 2.48172	 36.4821
     7	1	 23.9097	  1.6614	 33.8766
     8	1	 21.6973	  2.1756	  37.486
     9	1	 22.8634	 3.68705	 32.9115
    10	1	 20.6515	 4.18157	 36.5676
    11	1	 21.2057	 4.95886	 34.2518
    12	1	 23.3033	0.845644	 36.1024
    13	1	 30.7171	 26.7196	 2.75956
    14	1	 29.6705	  27.385	 2.09537
    15	1	 29.8402	 28.7009	 1.66976
    16	1	 31.0669	 29.3358	   1.895
    17	1	 32.0995	 28.6947	  2.5451
    18	1	  31.923	 27.3569	 2.99368
    19	1	 28.7093	 26.8599	 1.93474
    20	1	 32.7599	 26.8781	  3.4851
    21	1	  29.069	 29.1976	 1.15153
    22	1	 33.0502	 29.1924	 2.71692
    23	1	 31.2035	 30.3675	 1.52268
    24	1	 30.5814	 25.7324	 3.09867
    25	1	 35.4087	 8.96671	 8.25715
    26	1	 35.6406	 8.26178	 7.08082
    27	1	 36.5432	 7.21183	 7.06279
    28	1	 37.2228	 6.85327	 8.22956
    29	1	 36.9912	 7.55398	 9.42584
    30	1	 36.0849	 8.61589	 9.42037
    31	1	 35.1418	  8.5543	 6.15799
    32	1	  35.902	 9.17753	 10.3489
    33	1	 36.7377	 6.64587	  6.1202
    34	1	 37.5274	  7.3351	 10.3049
    35	1	 37.9581	 6.09009	 8.19401
    36	1	 34.6986	 9.80206	 8.24548
    37	1	 29.7983	 7.55371	 10.3233
    38	1	 31.0541	 7.02646	 10.1722
    39	1	 32.1592	 7.84496	 10.0056
    40	1	 31.9817	 9.24639	 9.99101
    41	1	 30.7124	 9.77652	 10.1545
    42	1	 29.5886	 8.93466	 10.3315
    43	1	 31.2093	 5.94626	 10.1769
    44	1	 28.5948	  9.3596	 10.4158
    45	1	 33.1196	 7.42854	 9.91176
    46	1	 30.5434	 10.8577	 10.1249
    47	1	 32.8374	 9.89265	 9.86255
    48	1	 28.9204	 6.89045	 10.4808
    49	1	 25.1361	 36.5326	 3.79026
    50	1	 24.8632	 35.2446	 3.33789
    51	1	 25.4163	 34.7834	 2.15497
    52	1	 26.2645	  35.621	  1.4075
    53	1	 26.5226	 36.8999	 1.85394
    54	1	 25.9598	 37.3679	 3.05043
    55	1	 24.2295	 34.5694	 3.96708
    56	1	 26.1691	 38.3736	 3.41047
    57	1	 25.2373	 33.7684	 1.81666
    58	1	 27.1781	 37.5745	 1.30843
    59	1	 26.6641	 35.2552	0.492885
    60	1	 24.6446	 36.8968	 4.72205
    61	1	 10.1906	 5.48455	 4.89153
    62	1	 10.9672	 4.69379	  5.7356
    63	1	 12.2006	 5.13548	  6.1917
    64	1	 12.6911	 6.38739	 5.79162
    65	1	 11.9206	 7.17673	 4.93735
    66	1	 10.6945	 6.73372	 4.47029
    67	1	 10.5856	 3.74487	 6.03417
    68	1	 10.1119	 7.35588	 3.79714
    69	1	 12.8146	 4.53401	 6.84327
    70	1	 12.2968	 8.14428	 4.60824
    71	1	 13.6361	  6.7167	 6.14616
    72	1	 9.26285	 5.11941	 4.51055
    73	1	 21.8184	 19.8054	  11.225
    74	1	 22.0447	 20.8455	 10.3501
    75	1	 21.3604	 22.0374	 10.4817
    76	1	 20.4275	 22.1979	 11.5091
    77	1	 20.2106	 21.1598	 12.4019
    78	1	 20.8944	 19.9504	 12.2537
    79	1	 22.7584	 20.7184	 9.50587
    80	1	 20.7278	  19.123	 12.9215
    81	1	 21.4886	 22.8548	 9.75404
    82	1	 19.4991	 21.2979	 13.1813
    83	1	 19.8697	 23.1312	 11.6115
    84	1	 22.3343	 18.8755	 11.1085
    85	1	 37.5044	 5.22816	 30.9894
    86	1	 37.3699	 4.93198	 29.6273
    87	1	 36.3799	 5.55667	 28.8642
    88	1	 35.5398	  6.4902	 29.4761
    89	1	 35.6597	 6.78487	  30.824
    90	1	 36.6587	 6.18198	 31.5879
    91	1	 38.0237	 4.19753	  29.175
    92	1	 36.8194	 6.39091	 32.6051
    93	1	 36.2918	 5.31053	  27.827
    94	1	 35.0431	  7.5431	 31.2905
    95	1	 34.7611	 7.00429	 28.8735
    96	1	 38.2563	 4.71497	 31.5726
    97	1	 26.9823	 10.3919	   36.34
    98	1	 27.2062	 11.2625	 37.4099
    99	1	 26.2972	 12.3062	 37.6363
   100	1	 25.1666	 12.4625	 36.8215
   101	1	 24.9499	 11.5865	 35.7538