ITEM: TIMESTEP
0.00321309
ITEM: NUMBER OF ATOMS
1200
ITEM: BOX BOUNDS
0	40
0	40
0	40
ITEM: ATOMS index type x y z
     1	  9.7776	 20.6806	 29.6913	-0.746872	-0.74238	 3.51354
     2	 10.2618	 20.9866	 30.9503	0.549052	-0.745829	-1.13666
     3	 10.8624	 19.9873	 31.7365	-1.43577	-3.64196	 3.27144
     4	 10.9896	 18.7004	 31.2271	-1.68595	-1.13134	0.972645
     5	 10.5102	 18.3884	 29.9529	-1.79279	-2.97477	0.916082
     6	 9.91078	 19.3924	 29.1837	0.553033	 1.07125	 1.78821
     7	 10.1575	 22.0018	 31.3738	-0.779594	 1.18214	 8.97014
     8	 9.55946	  19.186	 28.1969	 7.61322	 10.8834	 3.39322
     9	 11.2437	 20.2188	 32.7046	 1.15428	-5.35821	-4.17713
    10	 10.6436	 17.3876	 29.5707	  8.5962	-0.426105	 3.31875
    11	 11.4616	  17.924	 31.8021	-1.98599	-2.48686	-7.12554
    12	 9.29888	 21.4393	 29.0688	-2.52633	-4.88261	-2.85768
    13	 38.8467	 33.2404	  33.091	0.208553	-0.495746	 1.86589
    14	 39.2455	 34.3304	 33.8594	 -1.4037	0.430649	-0.510583
    15	 38.6843	 35.5903	 33.6446	-2.38144	0.705967	0.509175
    16	 37.7326	 35.7501	 32.6521	0.817569	-3.39502	 1.28634
    17	 37.3228	 34.6807	 31.8732	-0.679693	 1.76307	0.366616
    18	 37.8806	 33.4034	 32.1062	-1.04375	-3.59977	  4.7458
    19	 39.9792	 34.1805	 34.6433	-6.48853	-3.89046	 2.26748
    20	 37.5898	 32.5875	 31.4888	 6.78584	 5.74237	0.879272
    21	 39.0252	 36.4221	 34.2409	 5.65722	-3.70379	-1.88853
    22	 36.5761	 34.8085	 31.0965	0.0437419	-0.471239	-0.147397
    23	 37.2954	 36.7383	 32.4521	 0.12695	-1.15449	-7.73983
    24	 39.2805	 32.2951	 33.2621	-0.170188	 10.6168	 1.89647
    25	 39.1518	 23.4731	 37.2878	 0.54559	-1.52188	 1.79242
    26	 39.0762	 24.2201	 36.1136	-1.18192	-1.21189	 2.69135
    27	 39.2855	 25.5992	 36.1397	-3.59406	-0.551204	0.530185
    28	 39.5778	  26.223	 37.3465	-2.25414	-2.80273	-0.466653
    29	 39.6543	   25.48	 38.5319	-0.151913	-1.17201	  1.8443
    30	 39.4429	 24.1036	 38.4917	 1.76036	-0.679581	0.719201
    31	 38.8685	  23.744	 35.1616	 4.20515	 3.74896	-0.131857
    32	 39.4965	 23.5334	 39.4141	  1.4083	 1.68507	 2.21388
    33	 39.2342	 26.1665	  35.203	-2.42293	-4.80924	-5.90633
    34	 39.8845	 26.0077	 39.4522	-1.35198	-2.98436	-10.6164
    35	 39.7596	 27.2881	 37.3844	0.773472	-17.4057	 10.7098
    36	 38.9812	 22.4123	 37.2459	0.370308	 2.27949	 -2.8406
    37	 23.2329	  37.415	  37.469	 2.45336	  -1.252	-1.24889
    38	 24.1282	 38.2216	 36.7773	-2.42159	 1.02489	 0.90417
    39	 23.7058	 38.9519	  35.681	-0.680008	-4.08246	0.0153067
    40	 22.3717	 38.9199	 35.2791	-0.397014	0.286997	-0.595292
    41	 21.4685	 38.1165	   35.98	 1.40163	-2.03771	0.936676
    42	 21.8752	 37.3688	 37.0838	-4.92051	-1.29299	 3.04738
    43	 25.1752	  38.258	 37.0847	0.0705659	 1.85677	-1.33255
    44	 21.1593	 36.7609	 37.5977	 -7.0503	 2.45038	-5.70032
    45	 24.3831	 39.5773	 35.1596	-10.2341	-2.71171	 6.71566
    46	 20.4021	 38.0842	 35.6526	-6.49334	-0.862028	-4.16089
    47	 22.0373	 39.4956	 34.4255	-0.854421	-2.28983	-0.471506
    48	 23.5246	 36.8369	 38.3362	-6.70181	 9.19767	-7.11008
    49	 35.3346	 22.9416	 34.8545	-2.20552	-0.0608318	0.600495
    50	 34.7338	 21.8631	 34.2073	 -1.0013	 1.28292	0.0812244
    51	 33.3782	 21.9142	 33.8652	-3.05283	0.0538429	 1.92321
    52	 32.6386	 23.0547	  34.159	0.197574	 1.63122	 2.03534
    53	 33.2286	  24.125	 34.8003	-2.30166	-3.12437	 1.03527
    54	 34.5787	  24.079	  35.151	-2.26404	-0.297132	 1.85675
    55	 35.3251	 20.9597	 34.0171	 1.27621	-3.83998	 12.1724
    56	 35.0425	 24.9224	 35.6603	-3.27048	-0.175303	 4.45631
    57	 32.9309	 21.0665	 33.3717	 3.37915	-1.40123	 4.26531
    58	 32.6591	 25.0277	 35.0411	 2.09094	 -11.253	-1.42083
    59	 31.5558	 23.0905	 33.8961	-9.39701	-1.69853	 4.08264
    60	 36.3497	  22.906	 35.1283	 9.12992	 1.41582	  7.6175
    61	 28.9208	 28.4553	 21.1134	-4.43134	-1.15323	 4.17192
    62	 27.9932	 29.3492	 21.6262	-0.864984	0.669166	0.364736
    63	 26.6556	 29.2547	 21.2371	-1.35959	 -1.3387	0.979496
    64	 26.2676	 28.2834	 20.3236	 1.10938	-0.181878	  1.4346
    65	 27.1978	 27.3916	 19.8007	-1.61133	-1.98657	  2.0735
    66	 28.5443	 27.4847	 20.1825	 1.66504	-0.106706	-0.764646
    67	 28.2957	  30.126	 22.3286	-2.90692	 6.23778	-2.91576
    68	 29.2795	 26.8081	 19.7622	 2.64792	 4.39316	-4.29123
    69	  25.959	 29.9583	 21.6473	 9.95982	 2.58841	 1.33628
    70	 26.8868	 26.6304	 19.0737	-1.91631	-2.37842	-1.95705
    71	 25.2077	 28.1996	 20.0175	 -4.4552	-5.10489	 1.08603
    72	  29.989	 28.5159	 21.3964	 3.73664	-3.75933	-2.35398
    73	 5.95219	 26.7885	 12.7379	-0.481099	-1.82614	 1.23472
    74	 6.35608	 25.7985	  11.848	-1.38431	-2.61425	 3.81335
    75	 6.34372	 26.0537	 10.4709	0.847326	-3.19711	 2.77505
    76	 5.91453	  27.303	 9.99546	-0.457898	-1.23024	 1.07725
    77	 5.51535	 28.2977	 10.8978	 1.67069	 2.07903	 1.79583
    78	  5.5252	 28.0301	 12.2632	 -1.6647	0.0676054	-0.83747
    79	 6.68792	 24.8363	 12.1791	-5.95129	 11.8745	-2.40969
    80	 5.21901	 28.7732	 12.9515	 1.87146	-8.35352	-4.18974
    81	 6.62091	 25.2892	 9.75389	 -13.025	0.917174	 11.8635
    82	 5.20691	  29.267	 10.5118	 10.7317	-5.19411	 6.46473
    83	 5.88539	 27.5056	 8.91867	-4.54726	-0.748087	-1.65951
    84	 5.94151	 26.5944	 13.8017	 -8.8664	 1.68074	0.213937
    85	  16.988	 27.7948	 33.0175	-1.08328	-3.22172	 1.58085
    86	 17.0997	 28.7179	 34.0592	-0.876984	-0.919557	-0.18749
    87	 18.1017	  29.683	 34.0329	-0.396346	-1.23377	-1.27618
    88	 18.9985	 29.7352	 32.9755	-0.141612	 -2.1117	 2.01125
    89	 18.8716	 28.8119	 31.9236	-6.04765	 -5.0159	0.813998
    90	 17.8751	 27.8642	 31.9514	-3.69886	  1.6071	 2.91867
    91	 16.3982	 28.6751	  34.901	-1.48789	0.0352294	  3.4093
    92	 17.8162	 27.1389	 31.1271	-1.65238	 1.84654	 13.1916
    93	  18.203	 30.3908	 34.8612	 4.67362	-2.55353	 2.22856
    94	 19.5957	 28.8768	 31.0928	 2.39159	 1.81822	 1.17395
    95	 19.7629	 30.5149	 32.9477	-5.32139	 5.56198	-1.64528
    96	 16.1795	  27.065	 33.0134	 10.0613	 14.4363	  1.2653
    97	 21.1154	 35.6693	 20.8228	-1.43128	-0.54242	-0.36951
    98	 22.4066	 35.2861	 20.4326	 1.12621	-2.76071	 1.72353
    99	 22.6063	 34.7372	 19.1623	-0.521539	-1.17819	-0.516875
   100	  21.516	 34.5593	 18.3017	-4.35362	-1.16652	 1.45793
   101	 20.2301	 34.9394	 18.6927	-5.25774	0.110811	-0.072879
   102	 20.0333	 35.4986	 19.9562	-2.69481	 1.74907	-0.551303
   103	 23.2428	  35.435	 21.1091	-0.0771599	0.633081	 1.88469
   104	 19.0526	   35.77	 20.2835	 3.29693	 -4.9813	 5.43792
   105	 23.6102	 34.4602	 18.8706	0.687334	 3.80432	 4.86718
   106	 19.4152	 34.7983	 18.0346	 2.55437	-0.539031	 5.17206
   107	 21.6823	 34.1116	 17.3142	 -2.0734	-6.03898	 0.69925
   108	 20.9472	 36.0658	 21.8304	-3.98475	-11.5789	 6.66437
   109	 22.2141	 29.3565	 2.87618	-0.284645	0.108721	-0.269756
   110	  23.064	  30.169	 2.12179	 1.87376	-2.16502	0.869365
   111	 24.2424	 30.6602	 2.68081	0.731391	-0.556645	 1.18629
   112	 24.5765	 30.3383	 3.99004	-1.09649	 2.59346	0.323894
   113	 23.7372	 29.4983	 4.74491	-0.548663	-4.57934	0.906696
   114	 22.5594	 29.0224	 4.18519	 1.06353	-1.12768	0.371877
   115	  22.782	 30.4525	 1.08247	-6.69509	-1.12865	 6.46314
   116	 21.9164	 28.3979	 4.74598	 4.80734	 2.76702	-7.78836
   117	 24.9224	 31.3023	  2.1109	 8.21208	 1.01702	 6.50608
   118	 23.9863	 29.2649	 5.76416	 -5.5052	 3.39901	0.0511845
   119	 25.4967	 30.7378	 4.42944	-1.63542	 8.94982	 1.69365
   120	 21.3157	 28.9723	  2.4378	 6.74734	-2.07369	-0.373784
   121	 20.5738	0.843825	  8.6304	-2.23449	-0.988244	-1.11925
   122	 21.3396	0.484843	 9.75008	 1.12505	0.262333	0.0248534
   123	 20.7096	 0.29778	 10.9797	-0.737854	-1.62466	-1.35368
   124	 19.3332	0.481563	 11.1053	-0.243386	-1.38084	 1.01605
   125	 18.5801	0.845215	 9.98623	0.0453372	-1.17807	-0.239762
   126	 19.1996	 1.02998	 8.75704	-1.68597	0.305096	 1.56991
   127	  22.392	0.320485	 9.68272	 -5.2978	-6.38489	 8.00377
   128	  18.611	 1.33257	 7.88364	-1.88204	 6.40343	0.198546
   129	 21.2926	0.00670836	 11.8588	-1.98098	-4.44794	 1.49881
   130	 17.5181	  1.0134	  10.055	 3.45478	 6.97039	-7.48484
   131	 18.8955	0.344259	 12.0823	 15.0902	-0.230593	 5.68445
   132	 21.0874	0.985167	 7.69036	 6.04803	-0.570588	  5.7155
   133	 15.8872	 23.0242	  29.605	-0.721029	 -0.8601	-1.58603
   134	 15.7781	 23.0656	 28.2165	 1.27668	 2.04125	-0.168092
   135	 16.6727	 22.3412	 27.4348	-2.26552	 -3.0648	 2.10161
   136	 17.6938	 21.6122	 28.0343	-1.93939	-0.237838	 1.64364
   137	 17.8085	 21.5778	 29.4213	-1.71195	-1.29506	 1.03074
   138	 16.9075	 22.2874	  30.211	 1.04127	-1.80686	 1.05408
   139	 14.9979	 23.6659	 27.7596	 11.5037	 6.05351	 14.8913
   140	 17.0076	 22.3089	 31.3012	 3.93469	 13.0265	 3.47086
   141	 16.6163	 22.3802	  26.362	 7.56303	 1.91532	   5.294
   142	 18.6075	 20.9916	 29.8654	 -10.794	 3.27785	-4.31389
   143	  18.406	 21.0756	 27.4145	-0.299659	 4.54059	0.144965
   144	 15.1731	 23.5443	 30.2011	-2.45529	-11.1018	-6.51699
   145	 15.0613	 29.7408	 18.7404	-1.47481	-0.388034	-1.75294
   146	 14.3364	 29.6571	 17.5653	0.134335	-1.84364	 1.64355
   147	 14.4146	 30.6855	 16.6327	   1.131	 -3.2571	 2.08998
   148	 15.2086	 31.8039	 16.8841	-1.23663	-0.456654	 2.65943
   149	  15.938	 31.8836	 18.0707	-2.16333	-0.751475	 2.40925
   150	 15.8755	 30.8482	  19.002	 1.70034	 -1.1948	 1.24257
   151	 13.7328	 28.8193	 17.3347	 7.40247	 6.93284	-9.11977
   152	 16.4356	 30.9165	 19.9048	-1.05715	0.766432	-5.03518
   153	 13.8557	 30.5961	 15.6891	 4.26362	-12.1035	-4.02088
   154	 16.5943	 32.7545	   18.25	-1.98925	-5.37928	-11.6902
   155	 15.2596	 32.6151	 16.1763	 -4.4832	0.664804	 8.19113
   156	 14.9882	 28.9521	 19.5061	-6.15296	  4.6968	 9.99352
   157	 39.8595	 28.0287	 7.26433	-3.56655	-2.28385	  3.2143
   158	 39.7704	 26.8701	 6.48312	-0.501738	  -1.521	-1.19061
   159	 39.7032	 25.6257	 7.11318	-5.53589	-1.02872	0.678383
   160	 39.7688	 25.5344	 8.49991	-0.0724661	-2.98729	-0.961688
   161	 39.8733	 26.7069	  9.2786	 1.64971	0.899118	 2.65834
   162	  39.916	  27.955	 8.64364	-0.941711	0.574714	0.756742
   163	 39.7059	 26.9457	 5.40124	-9.06889	 1.46911	-0.547621
   164	 39.9811	 28.8693	 9.25538	-4.65203	 4.45248	 4.16538
   165	 39.6779	 24.7432	 6.53818	 10.5384	 5.97894	 7.21396
   166	 39.8808	 26.6297	 10.3475	-7.70332	 5.42084	-12.3765
   167	 39.7508	 24.5713	 9.00566	 6.47978	-0.528181	 4.87447
   168	 39.9033	 29.0191	 6.74647	-2.09231	 3.77791	 -6.3905
   169	 14.9812	 35.7026	 33.2112	-1.28405	 -1.5916	-1.39591
   170	 14.4649	 35.3375	 31.9741	-0.338204	-1.38617	 1.28068
   171	 13.5217	 34.3065	 31.8763	-1.42942	-2.39082	-1.90341
   172	 13.1061	   33.65	 33.0432	-0.279229	  -1.045	 1.06184
   173	 13.6181	 34.0178	 34.2769	-2.14398	-0.367494	-0.0388312
   174	 14.5612	  35.045	 34.3708	-1.85262	-1.10931	0.168802
   175	 14.8153	 35.8554	 31.0715	 5.52442	-4.86968	 15.5059
   176	 14.9486	 35.3308	 35.3124	  1.6227	 5.43507	 12.8995
   177	 13.1218	 34.0087	 30.8985	-0.171215	 -8.9961	 8.84853
   178	 13.3068	  33.453	 35.1474	 2.73275	 -15.858	-8.91296
   179	   12.37	  32.879	  32.979	-1.24668	 8.07908	 3.42532
   180	 15.7157	 36.5291	 33.2847	-0.402537	 6.25077	 1.47596
   181	 25.8098	 6.31827	  33.706	-3.63032	-1.21843	0.194192
   182	 26.0301	 7.69127	 33.8343	 -3.0233	-1.24554	 2.04516
   183	 25.6006	 8.36955	 34.9635	 1.35028	-0.838474	-0.0131048
   184	 24.9227	  7.6729	 35.9781	 -4.4652	 -2.2104	0.958551
   185	 24.7166	 6.30417	 35.8643	-0.111677	-1.50173	 2.57974
   186	 25.1577	 5.63022	 34.7284	-0.704387	0.691502	 2.30767
   187	 26.5703	 8.23607	 33.0193	-1.69477	 2.47207	 7.77602
   188	 24.9689	  4.5395	 34.6242	-0.663659	 5.73806	-7.60458
   189	 25.7465	 9.42379	 35.0431	-7.00889	-5.35585	-3.40689
   190	 24.1912	 5.79131	 36.6168	-3.35266	  6.6325	-9.40767
   191	  24.579	 8.20443	 36.8556	-4.05428	-2.04621	 -1.3646
   192	  26.162	 5.77465	 32.8134	-1.76357	 7.67917	 3.47516
   193	 28.9253	 29.7448	 37.9684	0.0798934	  2.7511	 2.30121
   194	   28.39	 30.9838	  37.671	-0.635934	-2.85527	-0.945041
   195	 28.9714	 32.1278	 38.2221	0.313512	-2.45337	 1.28997
   196	 30.0766	 32.0216	 39.0505	-2.93087	-0.75185	 -1.0844
   197	 30.6167	 30.7747	 39.3399	-0.39238	 2.07365	-0.33811
   198	 30.0408	 29.6271	 38.8002	 1.18148	 1.26735	 1.92993
   199	 27.5298	 31.0694	 37.0459	 1.48303	-3.31216	 6.49124
   200	 30.4528	 28.6621	 39.0135	 0.24271	 5.64248	-1.31472
   201	 28.5564	  33.113	 38.0035	-0.811736	-0.92885	 2.01086
   202	 31.4965	 30.6647	 39.9913	 3.56476	-4.77093	0.394643
   203	 30.5445	 32.9386	 39.4688	-7.97159	 2.10452	-11.2089
   204	 28.4485	 28.8576	 37.5403	-7.31832	 4.24167	 1.64619
   205	  28.327	 8.68403	 39.1787	-1.56324	-1.54524	-1.33173
   206	 28.8185	 9.99119	 39.2777	0.170206	-0.564651	 1.46428
   207	 27.9482	 11.0484	 39.5676	0.0665189	 1.96164	0.189289
   208	 26.5918	 10.7835	 39.7707	-0.0520035	-1.07716	0.225319
   209	 26.1091	 9.47836	 39.6824	0.957809	-1.44438	0.732416
   210	 26.9608	 8.43227	 39.3945	-5.04591	-0.522232	 2.64979
   211	 29.8653	 10.2005	 39.1335	-3.02074	 2.64606	 5.75753
   212	 26.5689	 7.42129	 39.3356	-9.36693	 1.02301	 6.10927
   213	 28.3668	 12.0413	 39.6632	 12.6833	-5.52016	 8.16141
   214	 25.0646	 9.32425	 39.8169	 4.85318	 12.2164	-6.55473
   215	 25.9476	 11.6013	 39.9894	 10.7658	-1.13621	-2.99421
   216	 29.0017	 7.86857	 38.9501	-2.88828	-0.756346	 -1.2194
   217	 18.3068	 5.32517	 2.11933	0.870669	0.987558	0.725535
   218	 16.9551	 5.71991	 2.13441	-3.71779	0.594645	0.750882
   219	 16.6362	 7.06998	 2.13234	-1.49753	-1.25257	 2.28507
   220	 17.6486	  8.0278	 2.11348	-1.37265	-1.92968	 3.57281
   221	 18.9812	 7.64253	 2.09536	-2.74828	 1.09756	   2.912
   222	 19.3088	 6.28376	 2.09746	-1.92676	0.547455	 1.38861
   223	 16.1641	 4.96676	 2.18498	  -4.646	-1.00954	 10.8872
   224	 20.3573	 5.99636	 2.09074	0.0825597	 6.95863	 3.03286
   225	 15.6022	 7.41279	  2.1613	0.983561	  9.2725	 7.56224
   226	 19.7933	  8.3555	 2.05141	 4.74716	-9.80269	-5.16177
   227	 17.3832	 9.11211	 2.07983	-4.90564	 6.57146	-5.03365
   228	 18.5659	  4.2654	 2.12767	 2.47275	0.123121	   1.766
   229	  4.1424	 23.8339	 18.5261	-3.29925	-0.353699	0.0299651
   230	 4.20041	  22.505	 18.1065	-0.184225	-1.88232	 5.12554
   231	  3.0168	 21.8497	 17.7379	-2.24066	0.215514	 -0.3519
   232	  1.7921	 22.5158	 17.8355	-2.45747	  1.1723	 3.28056
   233	 1.74989	 23.8302	 18.2592	-0.655279	-1.79772	-0.550322
   234	 2.93255	 24.4973	  18.611	0.794763	0.0835778	-0.323728
   235	 5.13056	 21.9824	 18.0448	-7.60556	-3.60399	  6.7806
   236	 2.89329	 25.5042	  18.972	0.401975	-7.41764	 6.22563
   237	 3.05539	 20.8176	 17.3845	-1.74511	-0.138709	-4.50692
   238	0.795642	  24.329	 18.3266	-0.733737	 -7.1608	-0.43083
   239	0.875816	 22.0297	 17.5243	-1.92464	 10.1783	-8.62613
   240	 5.08274	 24.3436	 18.8093	 3.65273	-1.97661	 2.89132
   241	 0.77607	 14.7718	 28.8372	-2.46805	-0.0584157	 1.92421
   242	 1.79022	 14.0922	 29.5177	-0.242932	-0.56642	-0.101145
   243	 2.80156	 14.8034	 30.1767	 1.41938	-2.05989	 3.65682
   244	 2.79306	  16.201	 30.1314	-0.795215	-2.29684	 2.31326
   245	  1.7876	 16.8883	 29.4452	-1.05894	 1.96953	 2.24883
   246	0.783278	 16.1721	  28.801	-0.224788	 2.20094	 3.41387
   247	  1.8045	 13.0293	 29.5782	 4.20218	  6.6253	 8.78763
   248	 39.9846	 16.6699	 28.2657	-4.77816	-7.50306	 3.32641
   249	 3.59518	 14.2633	 30.7163	-1.02052	 6.25188	 1.01876
   250	 1.77653	 17.9696	 29.4007	-4.50332	 0.19273	-1.96391
   251	 3.56483	 16.7713	 30.6023	-5.03158	 2.26745	-8.29502
   252	0.0138879	 14.2128	 28.2992	 4.32227	-0.0536294	-8.33384
   253	 22.7225	 17.6728	 11.6823	-0.435929	-1.09218	0.950996
   254	 23.9189	 18.3779	  11.808	 1.36284	-0.346582	-0.508358
   255	 24.9974	 17.8106	 12.4858	0.813181	 1.16097	 1.74085
   256	 24.8813	  16.521	 13.0278	0.886246	-0.616262	 1.43286
   257	 23.6789	 15.8152	 12.8951	-1.26948	-0.883504	0.666422
   258	  22.606	 16.3872	 12.2272	 0.62982	-2.10635	 1.92554
   259	  24.008	 19.3606	 11.4149	-0.300547	-4.78575	 8.05351
   260	 21.6789	 15.8156	 12.1146	 8.77902	 3.47292	 -4.2631
   261	 25.9348	 18.3774	 12.6027	-13.3123	 3.93564	 1.60211
   262	  23.593	 14.8329	 13.2973	0.311158	 3.70882	-5.18745
   263	 25.7367	 16.0848	 13.5374	0.984955	 13.7472	-9.55866
   264	 21.8631	 18.0915	 11.1644	-5.56631	-9.19453	 2.60617
   265	 10.8735	 12.5763	 23.0866	-1.69843	-1.77276	 1.41965
   266	 12.2619	 12.4511	 23.0921	-1.89544	-0.89824	  2.5066
   267	 13.0734	 13.5925	  23.113	-0.376547	-1.00891	 1.54521
   268	  12.485	 14.8566	 23.1282	-1.56497	-0.731407	-0.875682
   269	 11.0957	 14.9821	 23.1342	-1.97113	-1.52689	  1.2973
   270	 10.2905	 13.8437	 23.1141	-1.72166	-1.35058	  2.8325
   271	 12.7252	 11.4458	 23.0751	 2.94253	 7.31419	  3.0672
   272	 9.21038	 13.9478	 23.1163	-1.12511	-0.388244	 3.83384
   273	 14.1493	 13.5007	 23.1174	-2.08481	 2.71424	 2.60175
   274	 10.6381	 15.9773	 23.1416	-2.77856	 1.03172	-1.69081
   275	 13.1023	 15.7438	 23.1634	-4.87417	-0.689632	 4.16682
   276	 10.2455	 11.6913	 23.0408	-2.02619	-1.13905	-6.92128
   277	 4.56994	 36.2613	 18.2055	-1.88554	0.415617	 3.89777
   278	 3.38704	 35.6038	 18.5568	-4.01805	-0.997474	   -2.55
   279	 3.02275	  35.543	  19.912	-2.87937	-1.87136	0.948666
   280	 3.82832	 36.1361	 20.8712	-2.56917	-2.09695	-4.49242
   281	 5.00708	 36.7889	 20.5094	-1.54683	-2.20483	 0.74214
   282	 5.37454	 36.8601	 19.1595	-2.01038	 1.88512	-1.09714
   283	 2.77195	  35.124	 17.8334	-0.326114	-5.91425	 7.60919
   284	 6.27994	 37.3756	 18.9191	-4.99716	 3.92929	 14.3367
   285	 2.12821	 35.0412	 20.1832	 3.80037	0.362888	-5.23495
   286	 5.64435	 37.2541	 21.2596	 1.35525	 -1.5219	-1.36289
   287	 3.57232	 36.1081	  21.898	  1.6478	 2.49741	 11.7742
   288	 4.86919	 36.2904	 17.1445	 1.92695	-4.55558	-0.17031
   289	 21.8158	 2.59234	 27.6381	-0.688695	 -1.1385	0.350563
   290	 23.2129	 2.61482	 27.6402	-0.0216359	0.256305	0.0634762
   291	   23.88	  3.8284	 27.6423	-4.35463	-0.807793	-0.220549
   292	 23.1775	  5.0266	  27.644	-0.779496	-0.746258	0.610517
   293	 21.7789	 5.00967	 27.6448	-2.19771	-0.412555	 1.82018
   294	 21.1052	 3.79225	 27.6399	0.0534552	-0.233435	 1.22219
   295	 23.7173	 1.68353	 27.6184	-16.0925	  1.0974	-7.04449
   296	 20.0002	   3.776	 27.6593	-5.85834	-0.93331	 8.17488
   297	 24.9824	 3.82837	 27.6351	0.446442	-5.48681	-3.38468
   298	  21.226	 5.93336	 27.6252	-1.23081	 -3.6242	-3.98793
   299	 23.6995	 5.99183	 27.6328	-3.59449	 4.30364	-3.49515
   300	 21.2841	 1.63702	 27.6582	-1.22635	-3.10719	 7.22691
   301	 20.4406	 34.6727	 7.96471	 1.42843	-0.0919876	-1.33661
   302	 19.6113	 35.1553	 8.98903	-2.41141	-3.33943	0.631199
   303	 19.2193	    36.5	 8.97758	-1.46901	-0.922716	0.491972
   304	 19.6376	 37.3338	 7.94949	-2.30967	-4.11229	0.462448
   305	 20.4545	 36.8551	 6.93347	 -2.3447	 0.33999	0.457107
   306	 20.8492	 35.5182	 6.94133	 -2.4308	0.682328	-0.520738
   307	 19.3114	 34.5286	 9.79642	 6.34816	 6.09538	  2.6214
   308	 21.4697	 35.1017	 6.16076	-7.55378	 -9.4394	 3.34959
   309	 18.5743	 36.8874	  9.7805	-3.95646	-0.193151	 3.89027
   310	 20.7667	 37.4896	 6.15629	-7.23744	-6.64508	 7.86998
   311	 19.3399	 38.4177	 7.95682	0.889709	 8.93318	 5.23505
   312	 20.7514	 33.6568	 7.99404	 1.99977	 8.35628	 4.99201
   313	 33.0047	 19.9483	 23.7304	-2.25834	-0.518698	 1.36443
   314	 31.9884	  19.191	 23.1645	 1.42828	0.804252	0.0535274
   315	 31.7104	 19.2942	 21.8056	-2.06914	 1.00781	 3.00166
   316	 32.4736	 20.1404	 21.0066	-0.132102	-2.36267	 2.98551
   317	 33.5009	 20.9053	 21.5606	0.595146	-0.226687	-0.132994
   318	 33.7709	 20.8105	 22.9283	0.912727	 1.40357	 0.41771
   319	 31.4086	 18.5364	 23.7626	-8.51548	-9.51449	 5.59811
   320	 34.5536	 21.4253	  23.361	-4.17961	 8.79452	-1.86913
   321	 30.9303	 18.7283	 21.3553	 3.83017	 8.49097	0.103068
   322	 34.1064	 21.5524	 20.9372	 5.72134	  -6.718	-0.245499
   323	 32.2717	 20.2237	 19.9495	 2.38807	-0.71215	 5.13279
   324	 33.1808	 19.8562	 24.7771	-12.8326	-4.92592	-4.02529
   325	 4.86919	 3.98076	 39.9919	-2.42996	-0.695932	-2.22102
   326	 6.12522	  4.5973	0.00790115	-0.553043	 -1.4617	 2.77027
   327	  7.2758	 3.82349	0.00491634	-3.48648	-1.71456	 1.84132
   328	 7.19973	 2.44401	 39.9972	0.849118	 2.49268	-0.882112
   329	 5.93876	 1.81857	0.00568844	-2.87525	0.176553	 1.77039
   330	 4.77663	 2.59007	0.003792	-3.22715	-0.913166	  1.4914
   331	 6.18888	 5.68677	0.0028578	-2.52866	-0.0719513	 1.20065
   332	 3.80086	 2.11269	0.00895596	-3.77743	0.837112	 3.09856
   333	 8.27337	  4.3047	0.011782	 3.84845	-1.64957	 3.66688
   334	 5.85524	0.744811	0.00404936	-7.08481	  3.3648	 1.26027
   335	  8.0929	 1.81266	 39.9797	-2.52191	-6.33092	-6.31322
   336	 3.96705	 4.59427	 39.9958	-1.54121	 2.26106	-1.00324
   337	 6.53554	  8.9818	 4.42324	-0.765982	-2.24215	 2.56601
   338	  6.7754	 10.3514	 4.51833	-3.60965	-2.04027	   1.348
   339	 7.95631	 10.8102	 5.10672	-1.77027	0.0754149	-2.26504
   340	 8.88168	 9.89037	 5.61639	-1.65495	 -1.1289	0.434068
   341	 8.62764	 8.52151	 5.52048	-2.91295	-1.39711	 1.39428
   342	 7.44978	   8.076	 4.91901	-3.80391	0.622338	 0.93688
   343	 6.05689	 11.0432	 4.10206	-3.14521	-8.94913	-6.82905
   344	 7.27314	 7.00788	 4.85269	 1.90973	0.273491	 4.26106
   345	 8.15909	 11.8882	  5.2003	0.338206	 3.80544	 2.89403
   346	 9.35421	   7.848	 5.87738	-1.17821	 11.2049	-8.90771
   347	 9.79515	 10.2573	 6.12528	-2.44207	 3.51204	 13.4709
   348	 5.61234	 8.64874	  3.9759	-3.00549	 3.96502	 8.68405
   349	  35.994	 23.3073	 24.5988	-1.55695	-3.01867	 4.28881
   350	 35.1338	 22.8325	 25.5811	-2.23783	 -1.4092	 2.20807
   351	 35.5502	 21.8145	 26.4243	-3.04147	-0.149314	-0.220298
   352	 36.8299	 21.2676	 26.2907	-2.50971	-1.68774	 1.15316
   353	 37.6883	 21.7676	 25.3067	-2.68928	 3.80459	 3.34823
   354	 37.2685	 22.7723	 24.4506	-2.33702	-1.16493	 1.12125
   355	 34.1306	 23.2633	 25.6756	-4.46945	 1.32752	-1.98771
   356	  37.942	 23.1872	  23.714	-0.944429	 11.9022	 11.5267
   357	 34.9133	 21.4636	 27.2381	 6.63989	 7.35794	 13.1079
   358	 38.6998	 21.3194	 25.1785	 2.42963	-3.60472	-3.88206
   359	 37.1711	 20.4744	 26.9804	 5.06747	 8.15026	-1.72031
   360	  35.663	 24.1161	 23.9259	-2.81084	0.662282	 1.22033
   361	 12.1662	 13.9345	 38.5883	-0.240892	 1.40671	 3.84155
   362	 12.7995	  15.138	 38.8719	-0.16273	-0.297047	0.595464
   363	  14.161	 15.1516	 39.1759	0.0132072	-1.37528	0.282423
   364	 14.8873	 13.9632	 39.1892	-0.355302	0.266378	 1.09774
   365	 14.2393	 12.7548	  38.907	 -5.1831	-1.30133	 4.35179
   366	 12.8958	 12.7489	 38.6021	 0.57044	 2.13383	 4.39193
   367	 12.2689	 16.0597	 38.8732	 11.1693	-1.64699	 3.79631
   368	 12.4065	 11.8103	 38.3814	 1.40652	 2.89036	 6.96308
   369	 14.6464	 16.1183	 39.4003	-1.15832	-7.02987	-2.48758
   370	 14.8075	 11.8087	 38.9223	-4.83622	-7.26335	 6.32314
   371	 15.9629	 13.9604	 39.4111	  4.3163	-5.80313	-4.02625
   372	 11.1069	 13.9114	 38.3547	-0.0377438	-1.74332	 4.87967
   373	 39.0735	 34.0305	 1.87724	-1.09652	-1.08885	 3.80957
   374	 39.0655	 32.6569	 2.13243	0.472373	-1.90903	 2.00169
   375	 37.8439	  32.006	 2.33539	-2.84622	-0.606905	-3.61413
   376	  36.653	 32.7225	 2.31407	-0.633393	-0.147327	 2.51075
   377	 36.6668	 34.0886	  2.0455	-0.694707	-1.06412	0.156121
   378	  37.876	 34.7464	 1.83516	-1.55487	-0.482865	 3.16122
   379	 39.9843	 32.0724	 2.14288	-3.65079	-10.7594	 -4.7066
   380	 37.8706	  35.816	 1.63505	-6.34713	0.317407	 4.06128
   381	  37.827	 30.9537	 2.53963	 -4.3586	 3.94248	-3.22891
   382	 35.7374	 34.6178	 2.01459	0.430934	-9.72521	0.183032
   383	 35.7009	 32.2164	 2.45441	-3.15603	 1.38201	-7.34156
   384	0.0154209	 34.5472	 1.71085	-1.73637	 1.00193	 5.55567
   385	 27.6084	  34.097	 15.2259	 1.04359	-3.72347	0.579463
   386	 26.4652	 34.0712	 16.0271	-0.23591	0.986427	-0.61363
   387	  25.811	 32.8486	 16.2762	-3.12623	-1.67872	 4.74578
   388	 26.3097	 31.6758	 15.6859	-1.33583	-1.62042	-0.965725
   389	 27.4571	 31.7121	 14.8885	 1.58004	-3.07688	 1.09676
   390	 28.0925	 32.9393	 14.6577	-1.70216	0.721411	 1.78283
   391	 26.0616	 34.9639	 16.4637	-6.36241	-5.31943	-3.20232
   392	 28.9986	 32.9837	 14.0495	 4.24151	 4.58241	 7.63034
   393	 24.9195	 32.8115	 16.8869	-4.49827	-2.96589	-0.352999
   394	 27.8437	 30.7889	 14.4455	 2.39942	-5.93642	 2.02047
   395	 25.8195	 30.7335	  15.901	 2.64009	-0.167576	 9.66185
   396	 28.1172	 35.0647	 15.0652	 2.86128	 3.02959	 6.91084
   397	 10.2496	 38.7362	 24.5984	-1.69685	-0.455542	 0.68844
   398	 10.3239	  38.462	 25.9658	-2.21937	-2.49766	 1.79254
   399	 11.5167	 38.6978	 26.6522	-1.13738	-0.343422	-1.67835
   400	  12.629	  39.191	 25.9813	-1.42919	-2.38444	 1.33671
   401	 12.5597	 39.4717	 24.6172	-0.0824471	 1.46085	 2.23789
   402	 11.3712	 39.2319	 23.9279	 1.46518	-1.27479	 2.83445
   403	  9.4714	 38.0788	 26.4835	 2.61472	-0.993018	-0.775828
   404	 11.3081	 39.4478	 22.8501	-8.34808	-4.22836	 10.5581
   405	 11.5844	 38.4794	 27.6921	 2.95248	-7.85727	 13.1947
   406	 13.4478	 39.8378	   24.07	-8.39903	-10.7973	 -1.3892
   407	 13.5682	 39.4014	 26.5363	 2.25372	 6.96446	 6.61407
   408	 9.31403	  38.539	 24.0517	-4.97015	-6.21107	-0.731162
   409	 27.5922	  37.324	 11.8446	-2.43866	-0.620124	0.501382
   410	 28.2647	 37.8642	 10.7441	-0.883205	-1.52457	 1.16811
   411	 29.2739	 38.7882	 10.9324	-4.99563	-1.49259	-0.512011
   412	 29.6457	 39.1752	 12.2153	-1.33265	-0.882018	-3.03274
   413	 28.9841	 38.6396	 13.3283	0.221769	 1.48956	0.503524
   414	  27.957	 37.7129	  13.125	-0.944712	0.893354	-2.48376
   415	 27.9697	 37.5694	 9.75959	-4.45388	0.759707	 7.34103
   416	 27.4181	 37.3089	 13.9827	-7.75903	 6.19961	-2.59566
   417	 29.8329	 39.2015	 10.0592	 7.74813	-4.20606	-5.54521
   418	 29.2542	 38.9177	 14.3175	-3.66816	-5.99538	-4.19962
   419	 30.4533	 39.8823	 12.3564	-8.34236	-13.7679	0.854165
   420	 26.7806	 36.5907	 11.6993	 2.89944	  3.7787	-4.31327
   421	 11.9549	 32.1398	 9.02058	-0.0284176	-1.61405	 1.11351
   422	 11.9118	 30.7857	 9.36859	-3.47558	-2.59472	 1.73912
   423	 11.7428	 30.4169	 10.7023	-3.81245	-0.656033	 2.27156
   424	 11.6251	 31.3891	 11.6902	 1.57813	-1.83828	 2.56164
   425	 11.6503	 32.7382	 11.3397	-0.515127	-2.43651	0.839367
   426	 11.8116	 33.1059	 10.0043	-2.29882	-4.37806	0.0839472
   427	 12.0126	 30.0261	 8.60346	 -4.7972	-2.45446	 3.25516
   428	 11.8525	 34.1825	 9.76062	 2.64108	 2.96122	 7.97301
   429	 11.7156	 29.3885	 10.9677	-4.47658	  6.6856	0.833637
   430	 11.5586	 33.5085	 12.1187	 3.90704	0.772924	 3.65204
   431	  11.529	 31.1008	 12.7121	 12.4554	-0.68197	 -2.7639
   432	 12.1019	 32.4463	 7.97907	 5.26256	 2.88678	0.332541
   433	 30.4214	 29.3192	 9.48409	-0.174145	-1.17874	  3.7636
   434	 31.4448	  28.503	 9.01115	-1.31565	 1.23446	-0.264982
   435	 31.5438	  27.178	  9.4671	 -1.0035	-2.16486	-0.591014
   436	  30.616	 26.6882	  10.398	-0.320424	-2.12289	 3.43569
   437	 29.5866	  27.518	 10.8557	-1.35384	-0.312135	 2.69294
   438	 29.4968	 28.8258	 10.3942	 1.16914	-2.23027	 1.62995
   439	 32.1823	 28.9068	 8.33005	 2.88869	  8.0389	 10.2862
   440	 28.6948	  29.474	 10.7754	0.572934	-0.315215	 8.53201
   441	 32.3375	  26.539	 9.09891	-2.95478	-1.25471	-3.76377
   442	 28.8643	 27.1187	   11.54	-0.828945	-5.70788	-6.84177
   443	 30.6945	 25.6615	 10.7476	0.456441	-2.96212	 1.44095
   444	 30.3594	 30.3455	 9.10456	 4.17805	-0.477865	-3.24929
   445	 16.8049	 20.2324	 21.9293	0.895508	0.420394	0.727776
   446	 17.9471	 20.9893	 21.7922	-3.70497	-2.07394	 5.65683
   447	 18.1496	 22.1225	 22.5819	-3.55192	0.471609	 2.78323
   448	 17.2044	 22.4723	 23.5277	-0.805171	-2.38462	0.516112
   449	 16.0397	  21.711	 23.6811	-3.83729	-1.23047	0.653993
   450	 15.8506	 20.5825	 22.8883	0.178888	-2.34695	 2.90654
   451	 18.7096	 20.7076	 21.0686	 2.68934	-2.62428	 11.6916
   452	 14.9908	 19.9738	 23.0268	  12.995	-5.97699	  8.6676
   453	 19.0657	 22.6789	 22.4225	 1.45853	-12.1798	-9.80799
   454	 15.3039	 21.9771	 24.4079	-1.58438	-5.56741	-4.06368
   455	 17.3305	 23.3481	 24.1525	-10.7284	-2.78479	   1.103
   456	 16.6492	 19.3555	 21.2993	 1.31707	0.464509	-1.46662
   457	 15.1681	  16.717	 11.4049	 1.90235	-1.25271	0.291332
   458	 16.3633	 17.2798	 11.8296	-0.230061	-2.86541	 1.13291
   459	 17.3309	 17.6442	 10.8867	-1.72068	 1.18995	0.390706
   460	 17.0983	 17.4134	 9.51923	-1.77082	-2.97359	-3.35044
   461	 15.9088	 16.8497	 9.11615	 1.81782	-1.65932	 2.22458
   462	 14.9274	 16.4952	 10.0435	-1.12924	 -2.7298	-1.09945
   463	 16.5497	 17.4455	 12.9061	 6.97208	-2.58581	-6.47641
   464	 14.0024	 16.0754	 9.70043	 2.29199	 4.47486	-5.78053
   465	 18.2887	 18.0546	 11.1787	 5.19534	 -8.8322	-11.5983
   466	 15.7045	 16.6708	 8.07704	 -5.7605	-4.41705	 8.10543
   467	 17.8548	 17.6998	  8.8127	-1.93443	 1.17585	 4.26261
   468	 14.4226	 16.4593	 12.1523	 5.48032	 3.81319	 5.38597
   469	 20.7351	 19.6941	 38.5818	-0.903013	-1.22908	   1.807
   470	 22.0051	 20.2611	 38.4236	0.340365	-0.599434	 2.67118
   471	 22.2383	 21.5852	 38.8329	0.416799	 2.55149	 4.01459
   472	 21.1996	 22.3196	 39.3953	-1.37753	-1.99395	 3.21538
   473	 19.9435	 21.7657	 39.5431	0.451372	0.229275	-0.723504
   474	 19.7045	 20.4547	 39.1471	-0.770795	  2.4024	 2.19879
   475	 22.8154	  19.692	 37.9513	 2.31397	 4.06051	-7.68844
   476	 18.7231	 19.9866	 39.2606	 8.25248	 4.72157	0.689418
   477	 23.2139	 22.0121	 38.6959	-2.51387	 -1.5204	0.269582
   478	 19.1466	 22.3435	0.00481406	 3.30624	-0.763649	 6.47789
   479	 21.3778	 23.3511	 39.6916	-2.54895	  0.3569	-2.61711
   480	  20.528	 18.7113	 38.2571	-9.03297	 11.6236	-0.887014
   481	 35.2916	 34.7793	 12.5426	-5.10416	-0.232957	 -2.6096
   482	 34.0767	  35.441	 12.5437	-1.03309	-0.303001	 1.47521
   483	 33.0907	 35.0619	 11.6259	-0.728747	-0.338517	 -1.2772
   484	 33.3248	 34.0226	 10.7377	-2.87627	0.176012	 1.45601
   485	 34.5559	 33.3583	 10.7491	-1.59706	-0.82553	 1.26461
   486	 35.5444	 33.7324	 11.6659	-1.52744	-3.27029	 2.55995