ITEM: TIMESTEP
0.00351022
ITEM: NUMBER OF ATOMS
1200
ITEM: BOX BOUNDS
0	40
0	40
0	40
ITEM: ATOMS index type x y z
     1	 9.77738	 20.6804	 29.6923	-0.746872	-0.74238	 3.51354
     2	 10.2619	 20.9864	   30.95	0.549052	-0.745829	-1.13666
     3	  10.862	 19.9862	 31.7375	-1.43577	-3.64196	 3.27144
     4	 10.9891	    18.7	 31.2274	-1.68595	-1.13134	0.972645
     5	 10.5097	 18.3876	 29.9532	-1.79279	-2.97477	0.916082
     6	 9.91094	 19.3928	 29.1843	0.553033	 1.07125	 1.78821
     7	 10.1573	 22.0021	 31.3765	-0.779594	 1.18214	 8.97014
     8	 9.56172	 19.1892	 28.1979	 7.61322	 10.8834	 3.39322
     9	 11.2441	 20.2172	 32.7033	 1.15428	-5.35821	-4.17713
    10	 10.6462	 17.3875	 29.5716	  8.5962	-0.426105	 3.31875
    11	  11.461	 17.9233	    31.8	-1.98599	-2.48686	-7.12554
    12	 9.29813	 21.4379	  29.068	-2.52633	-4.88261	-2.85768
    13	 38.8467	 33.2403	 33.0915	0.208553	-0.495746	 1.86589
    14	 39.2451	 34.3305	 33.8592	 -1.4037	0.430649	-0.510583
    15	 38.6836	 35.5905	 33.6448	-2.38144	0.705967	0.509175
    16	 37.7329	 35.7491	 32.6525	0.817569	-3.39502	 1.28634
    17	 37.3226	 34.6812	 31.8733	-0.679693	 1.76307	0.366616
    18	 37.8803	 33.4024	 32.1077	-1.04375	-3.59977	  4.7458
    19	 39.9772	 34.1793	  34.644	-6.48853	-3.89046	 2.26748
    20	 37.5918	 32.5892	 31.4891	 6.78584	 5.74237	0.879272
    21	 39.0269	  36.421	 34.2404	 5.65722	-3.70379	-1.88853
    22	 36.5762	 34.8083	 31.0965	0.0437419	-0.471239	-0.147397
    23	 37.2954	 36.7379	 32.4498	 0.12695	-1.15449	-7.73983
    24	 39.2804	 32.2983	 33.2627	-0.170188	 10.6168	 1.89647
    25	 39.1519	 23.4727	 37.2883	 0.54559	-1.52188	 1.79242
    26	 39.0759	 24.2197	 36.1144	-1.18192	-1.21189	 2.69135
    27	 39.2844	 25.5991	 36.1399	-3.59406	-0.551204	0.530185
    28	 39.5771	 26.2222	 37.3464	-2.25414	-2.80273	-0.466653
    29	 39.6543	 25.4797	 38.5325	-0.151913	-1.17201	  1.8443
    30	 39.4434	 24.1034	 38.4919	 1.76036	-0.679581	0.719201
    31	 38.8698	 23.7452	 35.1615	 4.20515	 3.74896	-0.131857
    32	 39.4969	 23.5339	 39.4148	  1.4083	 1.68507	 2.21388
    33	 39.2335	 26.1651	 35.2013	-2.42293	-4.80924	-5.90633
    34	 39.8841	 26.0068	 39.4491	-1.35198	-2.98436	-10.6164
    35	 39.7599	 27.2829	 37.3875	0.773472	-17.4057	 10.7098
    36	 38.9813	  22.413	  37.245	0.370308	 2.27949	 -2.8406
    37	 23.2334	 37.4145	 37.4686	 1.32177	-1.60864	 -1.1789
    38	 24.1275	 38.2219	 36.7776	-2.42159	 1.02489	 0.90417
    39	 23.7056	 38.9507	 35.6811	-0.680008	-4.08246	0.0153067
    40	 22.3716	   38.92	 35.2789	-0.397014	0.286997	-0.595292
    41	 21.4689	 38.1158	 35.9803	 1.40163	-2.03771	0.936676
    42	 21.8737	 37.3685	 37.0847	-4.92051	-1.29299	 3.04738
    43	 25.1752	 38.2585	 37.0843	0.0705659	 1.85677	-1.33255
    44	 21.1601	 36.7625	 37.5958	 6.43343	 6.69998	-6.53428
    45	 24.3801	 39.5765	 35.1616	-10.2341	-2.71171	 6.71566
    46	 20.4002	  38.084	 35.6514	-6.49334	-0.862028	-4.16089
    47	  22.037	  39.495	 34.4253	-0.854421	-2.28983	-0.471506
    48	 23.5226	 36.8397	 38.3341	-6.70181	 9.19767	-7.11008
    49	 35.3339	 22.9416	 34.8546	-2.20552	-0.0608318	0.600495
    50	 34.7335	 21.8635	 34.2073	 -1.0013	 1.28292	0.0812244
    51	 33.3773	 21.9142	 33.8658	-3.05283	0.0538429	 1.92321
    52	 32.6387	 23.0552	 34.1596	0.197574	 1.63122	 2.03534
    53	 33.2279	  24.124	 34.8006	-2.30166	-3.12437	 1.03527
    54	 34.5781	  24.079	 35.1515	-2.26404	-0.297132	 1.85675
    55	 35.3255	 20.9585	 34.0207	 1.27621	-3.83998	 12.1724
    56	 35.0415	 24.9224	 35.6616	-3.27048	-0.175303	 4.45631
    57	 32.9319	 21.0661	  33.373	 3.37915	-1.40123	 4.26531
    58	 32.6597	 25.0244	 35.0407	 2.09094	 -11.253	-1.42083
    59	  31.553	   23.09	 33.8973	-9.39701	-1.69853	 4.08264
    60	 36.3524	 22.9064	 35.1305	 9.12992	 1.41582	  7.6175
    61	 28.9194	  28.455	 21.1146	-4.43134	-1.15323	 4.17192
    62	  27.993	 29.3493	 21.6263	-0.864984	0.669166	0.364736
    63	 26.6552	 29.2543	 21.2374	-1.35959	 -1.3387	0.979496
    64	 26.2679	 28.2834	  20.324	 1.10938	-0.181878	  1.4346
    65	 27.1973	  27.391	 19.8013	-1.61133	-1.98657	  2.0735
    66	 28.5448	 27.4846	 20.1823	 1.66504	-0.106706	-0.764646
    67	 28.2948	 30.1279	 22.3278	-2.90692	 6.23778	-2.91576
    68	 29.2803	 26.8094	 19.7609	 2.64792	 4.39316	-4.29123
    69	  25.962	 29.9591	 21.6477	 9.95982	 2.58841	 1.33628
    70	 26.8863	 26.6297	 19.0731	-1.91631	-2.37842	-1.95705
    71	 25.2064	 28.1981	 20.0178	 -4.4552	-5.10489	 1.08603
    72	 29.9901	 28.5148	 21.3957	 3.73664	-3.75933	-2.35398
    73	 5.95205	 26.7879	 12.7383	-0.481099	-1.82614	 1.23472
    74	 6.35567	 25.7977	 11.8491	-1.38431	-2.61425	 3.81335
    75	 6.34397	 26.0528	 10.4717	0.847326	-3.19711	 2.77505
    76	 5.91439	 27.3027	 9.99578	-0.457898	-1.23024	 1.07725
    77	 5.51585	 28.2983	 10.8983	 1.67069	 2.07903	 1.79583
    78	 5.52471	 28.0302	  12.263	 -1.6647	0.0676054	-0.83747
    79	 6.68615	 24.8398	 12.1783	-5.95129	 11.8745	-2.40969
    80	 5.21957	 28.7707	 12.9503	 1.87146	-8.35352	-4.18974
    81	 6.61704	 25.2894	 9.75741	 -13.025	0.917174	 11.8635
    82	  5.2101	 29.2654	 10.5138	 10.7317	-5.19411	 6.46473
    83	 5.88404	 27.5054	 8.91817	-4.54726	-0.748087	-1.65951
    84	 5.93888	 26.5949	 13.8018	 -8.8664	 1.68074	0.213937
    85	 16.9877	 27.7939	 33.0179	-1.08328	-3.22172	 1.58085
    86	 17.0995	 28.7176	 34.0591	-0.876984	-0.919557	-0.18749
    87	 18.1016	 29.6827	 34.0325	-0.396346	-1.23377	-1.27618
    88	 18.9985	 29.7346	 32.9761	-0.141612	 -2.1117	 2.01125
    89	 18.8699	 28.8106	  31.924	-5.57785	-4.11779	 1.35357
    90	  17.874	 27.8646	 31.9522	-3.69886	  1.6071	 2.91867
    91	 16.3978	 28.6751	  34.902	-1.48789	0.0352294	  3.4093
    92	 17.8157	 27.1395	  31.131	-1.65238	 1.84654	 13.1916
    93	 18.2044	   30.39	 34.8618	 4.67362	-2.55353	 2.22856
    94	 19.5964	 28.8774	 31.0931	 2.39159	 1.81822	 1.17395
    95	 19.7603	 30.5145	  32.946	-10.9193	-5.13966	-8.07469
    96	 16.1825	 27.0693	 33.0138	 10.0613	 14.4363	  1.2653
    97	  21.115	 35.6691	 20.8227	-1.43128	-0.54242	-0.36951
    98	  22.407	 35.2853	 20.4331	 1.12621	-2.76071	 1.72353
    99	 22.6062	 34.7369	 19.1622	-0.521539	-1.17819	-0.516875
   100	 21.5147	 34.5589	 18.3021	-4.35362	-1.16652	 1.45793
   101	 20.2285	 34.9394	 18.6927	-5.25774	0.110811	-0.072879
   102	 20.0325	 35.4991	 19.9561	-2.69481	 1.74907	-0.551303
   103	 23.2427	 35.4352	 21.1096	-0.0771599	0.633081	 1.88469
   104	 19.0536	 35.7685	 20.2851	 3.29693	 -4.9813	 5.43792
   105	 23.6104	 34.4614	 18.8721	0.687334	 3.80432	 4.86718
   106	  19.416	 34.7981	 18.0362	 2.55437	-0.539031	 5.17206
   107	 21.6817	 34.1098	 17.3145	 -2.0734	-6.03898	 0.69925
   108	  20.946	 36.0624	 21.8324	-3.98475	-11.5789	 6.66437
   109	  22.214	 29.3565	  2.8761	-0.284645	0.108721	-0.269756
   110	 23.0646	 30.1684	 2.12205	 2.80512	-1.59718	0.864751
   111	 24.2426	   30.66	 2.68116	0.731391	-0.556645	 1.18629
   112	 24.5762	 30.3391	 3.99014	-1.09649	 2.59346	0.323894
   113	 23.7371	 29.4969	 4.74518	-0.548663	-4.57934	0.906696
   114	 22.5597	  29.022	 4.18531	 1.06353	-1.12768	0.371877
   115	   22.78	 30.4522	  1.0844	-6.69509	-1.12865	 6.46314
   116	 21.9179	 28.3987	 4.74366	 4.80734	 2.76702	-7.78836
   117	 24.9248	 31.3026	 2.11284	-2.88571	-5.74916	 6.56105
   118	 23.9847	 29.2659	 5.76418	 -5.5052	 3.39901	0.0511845
   119	 25.4963	 30.7404	 4.42995	-1.63542	 8.94982	 1.69365
   120	 21.3177	 28.9717	 2.43769	 6.74734	-2.07369	-0.373784
   121	 20.5732	0.843531	 8.63007	-2.23449	-0.988244	-1.11925
   122	 21.3399	0.484921	 9.75009	 1.12505	0.262333	0.0248534
   123	 20.7094	0.297297	 10.9792	-0.737854	-1.62466	-1.35368
   124	 19.3331	0.481153	 11.1056	-0.243386	-1.38084	 1.01605
   125	 18.5802	 0.84481	 9.98639	0.218034	-1.45112	0.903231
   126	 19.1991	 1.03007	 8.75751	-1.68597	0.305096	 1.56991
   127	 22.3904	0.318588	 9.68509	 -5.2978	-6.38489	 8.00377
   128	 18.6104	 1.33448	  7.8837	-1.88204	 6.40343	0.198546
   129	  21.292	0.00538677	 11.8593	-1.98098	-4.44794	 1.49881
   130	 17.5191	 1.01547	 10.0527	 3.45478	 6.97039	-7.48484
   131	 18.8996	0.344846	 12.0812	 13.0324	 3.02303	-7.93508
   132	 21.0892	0.984997	 7.69206	 6.04803	-0.570588	  5.7155
   133	  15.887	 23.0239	 29.6046	-0.721029	 -0.8601	-1.58603
   134	 15.7785	 23.0662	 28.2164	 1.27668	 2.04125	-0.168092
   135	  16.672	 22.3402	 27.4354	-2.26552	 -3.0648	 2.10161
   136	 17.6932	 21.6122	 28.0348	-1.93939	-0.237838	 1.64364
   137	  17.808	 21.5775	 29.4216	-1.71195	-1.29506	 1.03074
   138	 16.9078	 22.2868	 30.2113	 1.04127	-1.80686	 1.05408
   139	 15.0013	 23.6677	  27.764	 11.5037	 6.05351	 14.8913
   140	 17.0088	 22.3127	 31.3022	 3.93469	 13.0265	 3.47086
   141	 16.6185	 22.3807	 26.3636	 7.56303	 1.91532	   5.294
   142	 18.6043	 20.9925	 29.8641	 -10.794	 3.27785	-4.31389
   143	 18.4059	 21.0769	 27.4145	-0.299659	 4.54059	0.144965
   144	 15.1724	  23.541	 30.1991	-2.45529	-11.1018	-6.51699
   145	 15.0608	 29.7406	 18.7398	-1.47481	-0.388034	-1.75294
   146	 14.3365	 29.6565	 17.5658	0.134335	-1.84364	 1.64355
   147	  14.415	 30.6846	 16.6333	   1.131	 -3.2571	 2.08998
   148	 15.2083	 31.8037	 16.8849	-1.23663	-0.456654	 2.65943
   149	 15.9374	 31.8834	 18.0715	-2.16333	-0.751475	 2.40925
   150	  15.876	 30.8478	 19.0024	 1.70034	 -1.1948	 1.24257
   151	  13.735	 28.8213	  17.332	 7.40247	 6.93284	-9.11977
   152	 16.4353	 30.9167	 19.9033	-1.05715	0.766432	-5.03518
   153	  13.857	 30.5925	 15.6879	 4.26362	-12.1035	-4.02088
   154	 16.5937	 32.7529	 18.2465	-1.98925	-5.37928	-11.6902
   155	 15.2583	 32.6153	 16.1788	 -4.4832	0.664804	 8.19113
   156	 14.9864	 28.9535	 19.5091	-6.15296	  4.6968	 9.99352
   157	 39.8585	  28.028	 7.26528	-3.56655	-2.28385	  3.2143
   158	 39.7702	 26.8697	 6.48276	-0.501738	  -1.521	-1.19061
   159	 39.7016	 25.6254	 7.11338	-5.53589	-1.02872	0.678383
   160	 39.7687	 25.5335	 8.49962	-0.0724661	-2.98729	-0.961688
   161	 39.8738	 26.7072	 9.27939	 1.64971	0.899118	 2.65834
   162	 39.9157	 27.9552	 8.64386	-0.941711	0.574714	0.756742
   163	 39.7032	 26.9462	 5.40108	-9.06889	 1.46911	-0.547621
   164	 39.9797	 28.8706	 9.25662	-4.65203	 4.45248	 4.16538
   165	  39.681	  24.745	 6.54032	 10.5384	 5.97894	 7.21396
   166	 39.8785	 26.6313	 10.3439	-7.70332	 5.42084	-12.3765
   167	 39.7527	 24.5711	 9.00711	 6.47978	-0.528181	 4.87447
   168	 39.9027	 29.0203	 6.74457	-2.09231	 3.77791	 -6.3905
   169	 14.9808	 35.7021	 33.2108	-1.28405	 -1.5916	-1.39591
   170	 14.4648	 35.3371	 31.9745	-0.338204	-1.38617	 1.28068
   171	 13.5213	 34.3058	 31.8757	-1.42942	-2.39082	-1.90341
   172	  13.106	 33.6497	 33.0435	-0.279229	  -1.045	 1.06184
   173	 13.6175	 34.0177	 34.2769	-2.14398	-0.367494	-0.0388312
   174	 14.5607	 35.0447	 34.3708	-1.85262	-1.10931	0.168802
   175	 14.8169	 35.8539	 31.0761	 5.52442	-4.86968	 15.5059
   176	 14.9491	 35.3324	 35.3163	  1.6227	 5.43507	 12.8995
   177	 13.1217	  34.006	 30.9011	-0.171215	 -8.9961	 8.84853
   178	 13.3076	 33.4483	 35.1447	 2.73275	 -15.858	-8.91296
   179	 12.3696	 32.8814	   32.98	-1.24668	 8.07908	 3.42532
   180	 15.7156	 36.5309	 33.2852	-0.402537	 6.25077	 1.47596
   181	 25.8088	 6.31791	  33.706	-3.63032	-1.21843	0.194192
   182	 26.0292	  7.6909	 33.8349	 -3.0233	-1.24554	 2.04516
   183	  25.601	  8.3693	 34.9635	 1.35028	-0.838474	-0.0131048
   184	 24.9213	 7.67224	 35.9784	 -4.4652	 -2.2104	0.958551
   185	 24.7167	 6.30381	 35.8649	0.735354	-0.678627	 1.37208
   186	 25.1575	 5.63043	 34.7291	-0.704387	0.691502	 2.30767
   187	 26.5698	  8.2368	 33.0216	-1.69477	 2.47207	 7.77602
   188	 24.9687	  4.5412	  34.622	-0.663659	 5.73806	-7.60458
   189	 25.7444	  9.4222	  35.042	-7.00889	-5.35585	-3.40689
   190	 24.1893	 5.79236	 36.6153	-13.4456	-3.17536	  4.9824
   191	 24.5778	 8.20382	 36.8552	-4.05428	-2.04621	 -1.3646
   192	 26.1615	 5.77693	 32.8144	-1.76357	 7.67917	 3.47516
   193	 28.9253	 29.7457	 37.9691	0.0798934	  2.7511	 2.30121
   194	 28.3898	  30.983	 37.6707	-0.635934	-2.85527	-0.945041
   195	 28.9715	 32.1271	 38.2224	0.313512	-2.45337	 1.28997
   196	 30.0758	 32.0213	 39.0503	-2.18574	-1.46378	-0.590922
   197	 30.6166	 30.7753	 39.3398	-0.39238	 2.07365	-0.33811
   198	 30.0411	 29.6274	 38.8008	 1.18148	 1.26735	 1.92993
   199	 27.5302	 31.0684	 37.0478	 1.48303	-3.31216	 6.49124
   200	 30.4529	 28.6638	 39.0131	 0.24271	 5.64248	-1.31472
   201	 28.5562	 33.1127	 38.0041	-0.811736	-0.92885	 2.01086
   202	 31.4962	 30.6645	 39.9905	-5.31402	 3.71218	-5.48553
   203	 30.5421	 32.9392	 39.4655	-7.97159	 2.10452	-11.2089
   204	 28.4463	 28.8589	 37.5408	-7.31832	 4.24167	 1.64619
   205	 28.3265	 8.68358	 39.1783	-1.56324	-1.54524	-1.33173
   206	 28.8186	 9.99102	 39.2781	0.170206	-0.564651	 1.46428
   207	 27.9483	 11.0489	 39.5677	0.0665189	 1.96164	0.189289
   208	  26.592	 10.7834	 39.7708	0.885884	-0.413267	0.168967
   209	 26.1094	 9.47793	 39.6826	0.957809	-1.44438	0.732416
   210	 26.9593	 8.43211	 39.3953	-5.04591	-0.522232	 2.64979
   211	 29.8644	 10.2013	 39.1352	-3.02074	 2.64606	 5.75753
   212	 26.5661	 7.42159	 39.3374	-9.36693	 1.02301	 6.10927
   213	 28.3683	 12.0381	 39.6658	 1.50773	-13.4309	 8.83288
   214	  25.066	 9.32788	  39.815	 4.85318	 12.2164	-6.55473
   215	 25.9508	  11.601	 39.9885	 10.7658	-1.13621	-2.99421
   216	 29.0009	 7.86835	 38.9497	-2.88828	-0.756346	 -1.2194
   217	 18.3071	 5.32547	 2.11955	0.870669	0.987558	0.725535
   218	 16.9539	 5.72009	 2.13464	-3.71779	0.594645	0.750882
   219	 16.6357	  7.0696	 2.13302	-1.49753	-1.25257	 2.28507
   220	 17.6482	 8.02723	 2.11454	-1.37265	-1.92968	 3.57281
   221	 18.9804	 7.64285	 2.09622	-2.74828	 1.09756	   2.912
   222	 19.3082	 6.28392	 2.09787	-1.92676	0.547455	 1.38861
   223	 16.1627	 4.96646	 2.18822	  -4.646	-1.00954	 10.8872
   224	 20.3573	 5.99843	 2.09165	0.0825597	 6.95863	 3.03286
   225	 15.6025	 7.41555	 2.16355	0.983561	  9.2725	 7.56224
   226	 19.7947	 8.35259	 2.04988	 4.74716	-9.80269	-5.16177
   227	 17.3818	 9.11407	 2.07833	-4.90564	 6.57146	-5.03365
   228	 18.5667	 4.26543	  2.1282	 2.47275	0.123121	   1.766
   229	 4.14142	 23.8338	 18.5261	-3.29925	-0.353699	0.0299651
   230	 4.20035	 22.5044	  18.108	-0.184225	-1.88232	 5.12554
   231	 3.01613	 21.8498	 17.7378	-2.24066	0.215514	 -0.3519
   232	 1.79137	 22.5161	 17.8365	-2.45747	  1.1723	 3.28056
   233	  1.7497	 23.8297	 18.2591	-0.655279	-1.79772	-0.550322
   234	 2.93279	 24.4973	 18.6109	0.794763	0.0835778	-0.323728
   235	  5.1283	 21.9813	 18.0468	-7.60556	-3.60399	  6.7806
   236	 2.89341	  25.502	 18.9739	0.401975	-7.41764	 6.22563
   237	 3.05487	 20.8175	 17.3832	-1.74511	-0.138709	-4.50692
   238	0.795424	 24.3269	 18.3265	-0.733737	 -7.1608	-0.43083
   239	0.875244	 22.0327	 17.5217	-1.92464	 10.1783	-8.62613
   240	 5.08382	 24.3431	 18.8101	 3.65273	-1.97661	 2.89132
   241	0.775337	 14.7718	 28.8378	-2.46805	-0.0584157	 1.92421
   242	 1.79015	  14.092	 29.5176	-0.242932	-0.56642	-0.101145
   243	 2.80198	 14.8028	 30.1778	 1.40153	-2.04779	 3.64466
   244	 2.79283	 16.2003	 30.1321	-0.795215	-2.29684	 2.31326
   245	 1.78728	 16.8889	 29.4459	-1.05894	 1.96953	 2.24883
   246	0.783216	 16.1727	  28.802	-0.206941	 2.18884	 3.42604
   247	 1.80575	 13.0313	 29.5808	 4.20218	  6.6253	 8.78763
   248	 39.9832	 16.6677	 28.2667	-4.77816	-7.50306	 3.32641
   249	 3.59487	 14.2652	 30.7166	-1.02052	 6.25188	 1.01876
   250	 1.77519	 17.9697	 29.4001	-4.50332	 0.19273	-1.96391
   251	 3.56334	  16.772	 30.5999	-5.03158	 2.26745	-8.29502
   252	0.0151721	 14.2128	 28.2967	 4.32227	-0.0536294	-8.33384
   253	 22.7223	 17.6725	 11.6826	-0.435929	-1.09218	0.950996
   254	 23.9193	 18.3778	 11.8078	 1.36284	-0.346582	-0.508358
   255	 24.9976	  17.811	 12.4863	0.813181	 1.16097	 1.74085
   256	 24.8815	 16.5208	 13.0283	0.886246	-0.616262	 1.43286
   257	 23.6785	 15.8149	 12.8953	-1.26948	-0.883504	0.666422
   258	 22.6062	 16.3866	 12.2278	 0.62982	-2.10635	 1.92554
   259	 24.0079	 19.3592	 11.4173	-0.300547	-4.78575	 8.05351
   260	 21.6815	 15.8166	 12.1133	 8.77902	 3.47292	 -4.2631
   261	 25.9308	 18.3786	 12.6032	-13.3123	 3.93564	 1.60211
   262	 23.5931	  14.834	 13.2958	0.311158	 3.70882	-5.18745
   263	  25.737	 16.0889	 13.5345	0.984955	 13.7472	-9.55866
   264	 21.8615	 18.0887	 11.1651	-5.56631	-9.19453	 2.60617
   265	  10.873	 12.5758	  23.087	-1.69843	-1.77276	 1.41965
   266	 12.2613	 12.4508	 23.0928	-1.89544	-0.89824	  2.5066
   267	 13.0733	 13.5922	 23.1135	-0.376547	-1.00891	 1.54521
   268	 12.4845	 14.8564	 23.1279	-1.56497	-0.731407	-0.875682
   269	 11.0951	 14.9816	 23.1346	-1.97113	-1.52689	  1.2973
   270	   10.29	 13.8433	 23.1149	-1.72166	-1.35058	  2.8325
   271	 12.7261	  11.448	  23.076	 2.94253	 7.31419	  3.0672
   272	 9.21005	 13.9476	 23.1175	-1.12511	-0.388244	 3.83384
   273	 14.1487	 13.5015	 23.1181	-2.08481	 2.71424	 2.60175
   274	 10.6372	 15.9776	 23.1411	-2.77856	 1.03172	-1.69081
   275	 13.1009	 15.7436	 23.1646	-4.87417	-0.689632	 4.16682
   276	 10.2449	  11.691	 23.0387	-2.02619	-1.13905	-6.92128
   277	 4.56938	 36.2615	 18.2067	-1.88554	0.415617	 3.89777
   278	 3.38585	 35.6035	  18.556	-4.01805	-0.997474	   -2.55
   279	 3.02189	 35.5424	 19.9123	-2.87937	-1.87136	0.948666
   280	 3.82755	 36.1355	 20.8698	-2.56917	-2.09695	-4.49242
   281	 5.00662	 36.7883	 20.5097	-1.54683	-2.20483	 0.74214
   282	 5.37394	 36.8606	 19.1591	-2.01038	 1.88512	-1.09714
   283	 2.77186	 35.1222	 17.8357	-0.326114	-5.91425	 7.60919
   284	 6.27846	 37.3768	 18.9233	-4.99716	 3.92929	 14.3367
   285	 2.12934	 35.0413	 20.1816	 3.80037	0.362888	-5.23495
   286	 5.64476	 37.2537	 21.2592	 1.35525	 -1.5219	-1.36289
   287	 3.57281	 36.1088	 21.9014	  1.6478	 2.49741	 11.7742
   288	 4.86976	  36.289	 17.1444	 1.92695	-4.55558	-0.17031
   289	 21.8156	   2.592	 27.6382	-0.688695	 -1.1385	0.350563
   290	 23.2129	  2.6149	 27.6402	-0.0216359	0.256305	0.0634762
   291	 23.8787	 3.82816	 27.6422	-4.35463	-0.807793	-0.220549
   292	 23.1773	 5.02638	 27.6441	-0.779496	-0.746258	0.610517
   293	 21.7783	 5.00955	 27.6454	-2.19771	-0.412555	 1.82018
   294	 21.1052	 3.79218	 27.6403	0.0534552	-0.233435	 1.22219
   295	 23.7125	 1.68385	 27.6163	-16.0925	  1.0974	-7.04449
   296	 19.9984	 3.77572	 27.6617	-5.85834	-0.93331	 8.17488
   297	 24.9826	 3.82674	 27.6341	0.446442	-5.48681	-3.38468
   298	 21.2257	 5.93228	  27.624	-1.23081	 -3.6242	-3.98793
   299	 23.6984	 5.99311	 27.6317	-3.59449	 4.30364	-3.49515
   300	 21.2837	 1.63609	 27.6604	-1.22635	-3.10719	 7.22691
   301	  20.441	 34.6727	 7.96431	 1.42843	-0.0919876	-1.33661
   302	 19.6105	 35.1543	 8.98922	-2.41141	-3.33943	0.631199
   303	 19.2188	 36.4998	 8.97773	-1.46901	-0.922716	0.491972
   304	 19.6369	 37.3326	 7.94962	-2.30967	-4.11229	0.462448
   305	 20.4537	  36.855	 6.93379	-2.85761	-0.702992	  1.7348
   306	 20.8485	 35.5184	 6.94117	 -2.4308	0.682328	-0.520738
   307	 19.3133	 34.5304	  9.7972	 6.34816	 6.09538	  2.6214
   308	 21.4675	 35.0989	 6.16176	-7.55378	 -9.4394	 3.34959
   309	 18.5731	 36.8873	 9.78166	-3.95646	-0.193151	 3.89027
   310	 20.7655	 37.4895	 6.15639	-1.12573	 5.78275	-7.35456
   311	 19.3401	 38.4204	 7.95838	0.889709	 8.93318	 5.23505
   312	  20.752	 33.6593	 7.99552	 1.99977	 8.35628	 4.99201
   313	 33.0041	 19.9482	 23.7308	-2.25834	-0.518698	 1.36443
   314	 31.9888	 19.1912	 23.1645	 1.42828	0.804252	0.0535274
   315	 31.7097	 19.2945	 21.8065	-2.06914	 1.00781	 3.00166
   316	 32.4735	 20.1397	 21.0075	-0.132102	-2.36267	 2.98551
   317	 33.5011	 20.9052	 21.5605	0.595146	-0.226687	-0.132994
   318	 33.7712	 20.8109	 22.9285	0.912727	 1.40357	 0.41771
   319	 31.4061	 18.5335	 23.7642	-8.51548	-9.51449	 5.59811
   320	 34.5523	 21.4279	 23.3604	-4.17961	 8.79452	-1.86913
   321	 30.9314	 18.7308	 21.3554	 3.83017	 8.49097	0.103068
   322	 34.1081	 21.5504	 20.9371	 5.72134	  -6.718	-0.245499
   323	 32.2724	 20.2235	  19.951	 2.38807	-0.71215	 5.13279
   324	  33.177	 19.8547	 24.7759	-12.8326	-4.92592	-4.02529
   325	 4.86847	 3.98056	 39.9912	-2.42996	-0.695932	-2.22102
   326	 6.12506	 4.59687	0.00872426	-0.553043	 -1.4617	 2.77027
   327	 7.27476	 3.82298	0.00546344	-3.48648	-1.71456	 1.84132
   328	 7.19998	 2.44475	 39.9969	0.849118	 2.49268	-0.882112
   329	 5.93791	 1.81862	0.00621446	-2.87525	0.176553	 1.77039
   330	 4.77567	 2.58979	0.00423512	-3.22715	-0.913166	  1.4914
   331	 6.18812	 5.68675	0.00321454	-2.52866	-0.0719513	 1.20065
   332	 3.79974	 2.11294	0.00987661	-3.77743	0.837112	 3.09856
   333	 8.27451	 4.30421	0.0128715	 3.84845	-1.64957	 3.66688
   334	 5.85313	0.745811	0.00442382	-7.08481	  3.3648	 1.26027
   335	 8.09215	 1.81078	 39.9778	-2.52191	-6.33092	-6.31322
   336	 3.96659	 4.59494	 39.9955	-1.54121	 2.26106	-1.00324
   337	 6.53531	 8.98113	 4.42401	-0.765982	-2.24215	 2.56601
   338	 6.77441	 10.3509	 4.51877	-2.90921	-1.26221	 1.69318
   339	 7.95579	 10.8103	 5.10605	-1.77027	0.0754149	-2.26504
   340	 8.88119	 9.89004	 5.61652	-1.65495	 -1.1289	0.434068
   341	 8.62686	 8.52123	 5.52094	-2.28824	-0.467986	 1.71889
   342	 7.44865	 8.07618	 4.91929	-3.80391	0.622338	 0.93688
   343	 6.05596	 11.0406	 4.10003	-3.14521	-8.94913	-6.82905
   344	  7.2737	 7.00796	 4.85396	 1.90973	0.273491	 4.26106
   345	 8.15821	 11.8883	 5.20068	-8.00795	-5.46577	-1.21905
   346	 9.35386	 7.85133	 5.87473	-1.17821	 11.2049	-8.90771
   347	 9.79339	 10.2568	 6.12875	 -9.8859	-7.55914	 9.60291
   348	 5.61145	 8.64992	 3.97848	-3.00549	 3.96502	 8.68405
   349	 35.9935	 23.3064	 24.6001	-1.55695	-3.01867	 4.28881
   350	 35.1331	 22.8321	 25.5818	-2.23783	 -1.4092	 2.20807
   351	 35.5493	 21.8145	 26.4242	-3.04147	-0.149314	-0.220298
   352	 36.8292	 21.2671	  26.291	-2.50971	-1.68774	 1.15316
   353	 37.6875	 21.7687	 25.3077	-2.68928	 3.80459	 3.34823
   354	 37.2678	 22.7719	 24.4509	-2.33702	-1.16493	 1.12125
   355	 34.1293	 23.2637	  25.675	-4.46945	 1.32752	-1.98771
   356	 37.9417	 23.1908	 23.7175	-0.944429	 11.9022	 11.5267
   357	 34.9153	 21.4658	  27.242	 6.63989	 7.35794	 13.1079
   358	 38.7005	 21.3183	 25.1774	 2.42963	-3.60472	-3.88206
   359	 37.1727	 20.4768	 26.9799	 5.06747	 8.15026	-1.72031
   360	 35.6621	 24.1163	 23.9263	-2.81084	0.662282	 1.22033
   361	 12.1662	 13.9349	 38.5895	-0.240892	 1.40671	 3.84155
   362	 12.7994	  15.138	 38.8721	-0.16273	-0.297047	0.595464
   363	  14.161	 15.1512	  39.176	0.0132072	-1.37528	0.282423
   364	 14.8872	 13.9633	 39.1895	-0.355302	0.266378	 1.09774
   365	 14.2378	 12.7544	 38.9083	 -5.1831	-1.30133	 4.35179
   366	  12.896	 12.7495	 38.6034	 0.57044	 2.13383	 4.39193
   367	 12.2722	 16.0592	 38.8743	 11.1693	-1.64699	 3.79631
   368	 12.4069	 11.8111	 38.3834	 1.40652	 2.89036	 6.96308
   369	  14.646	 16.1162	 39.3996	-1.15832	-7.02987	-2.48758
   370	  14.806	 11.8065	 38.9242	-4.83622	-7.26335	 6.32314
   371	 15.9642	 13.9586	 39.4099	  4.3163	-5.80313	-4.02625
   372	 11.1069	 13.9109	 38.3561	-0.0377438	-1.74332	 4.87967
   373	 39.0732	 34.0302	 1.87837	-1.09652	-1.08885	 3.80957
   374	 39.0657	 32.6563	 2.13303	0.472373	-1.90903	 2.00169
   375	  37.843	 32.0059	 2.33431	-2.84622	-0.606905	-3.61413
   376	 36.6528	 32.7225	 2.31481	-0.633393	-0.147327	 2.51075
   377	 36.6666	 34.0883	 2.04555	-0.694707	-1.06412	0.156121
   378	 37.8755	 34.7463	  1.8361	-1.55487	-0.482865	 3.16122
   379	 39.9832	 32.0692	 2.14148	-3.65079	-10.7594	 -4.7066
   380	 37.8687	 35.8161	 1.63626	-6.34713	0.317407	 4.06128
   381	 37.8257	 30.9548	 2.53867	 -4.3586	 3.94248	-3.22891
   382	 35.7375	 34.6149	 2.01464	0.430934	-9.72521	0.183032
   383	 35.6999	 32.2169	 2.45223	-3.15603	 1.38201	-7.34156
   384	0.014905	 34.5475	  1.7125	-1.73637	 1.00193	 5.55567
   385	 27.6087	 34.0959	  15.226	 1.04359	-3.72347	0.579463
   386	 26.4651	 34.0715	 16.0269	-0.23591	0.986427	-0.61363
   387	   25.81	 32.8481	 16.2777	-3.12623	-1.67872	 4.74578
   388	 26.3093	 31.6753	 15.6856	-1.33583	-1.62042	-0.965725
   389	 27.4576	 31.7111	 14.8888	 1.58004	-3.07688	 1.09676
   390	  28.092	 32.9395	 14.6583	-1.70216	0.721411	 1.78283
   391	 26.0597	 34.9623	 16.4628	-6.36241	-5.31943	-3.20232
   392	 28.9999	 32.9851	 14.0518	 4.24151	 4.58241	 7.63034
   393	 24.9182	 32.8106	 16.8868	-4.49827	-2.96589	-0.352999
   394	 27.8444	 30.7872	 14.4461	 2.39942	-5.93642	 2.02047
   395	 25.8203	 30.7334	 15.9039	 2.64009	-0.167576	 9.66185
   396	  28.118	 35.0656	 15.0673	 2.86128	 3.02959	 6.91084
   397	 10.2491	 38.7361	 24.5986	-1.69685	-0.455542	 0.68844
   398	 10.3232	 38.4612	 25.9663	-2.19638	-2.48728	 1.77868
   399	 11.5164	 38.6976	 26.6517	-1.13738	-0.343422	-1.67835
   400	 12.6285	 39.1903	 25.9817	-1.42919	-2.38444	 1.33671
   401	 12.5597	 39.4721	 24.6179	-0.105441	 1.45046	 2.25176
   402	 11.3717	 39.2315	 23.9287	 1.46518	-1.27479	 2.83445
   403	 9.47218	 38.0785	 26.4833	 2.61472	-0.993018	-0.775828
   404	 11.3056	 39.4465	 22.8532	-8.34808	-4.22836	 10.5581
   405	 11.5852	 38.4771	  27.696	 2.95248	-7.85727	 13.1947
   406	 13.4453	 39.8346	 24.0696	-8.39903	-10.7973	 -1.3892
   407	 13.5689	 39.4034	 26.5382	 2.25372	 6.96446	 6.61407
   408	 9.31255	 38.5372	 24.0514	-4.97015	-6.21107	-0.731162
   409	 27.5914	 37.3238	 11.8448	-2.43866	-0.620124	0.501382
   410	 28.2644	 37.8638	 10.7445	-0.883205	-1.52457	 1.16811
   411	 29.2725	 38.7878	 10.9322	-4.99563	-1.49259	-0.512011
   412	 29.6453	 39.1749	 12.2144	-1.33265	-0.882018	-3.03274
   413	 28.9842	   38.64	 13.3285	0.221769	 1.48956	0.503524
   414	 27.9567	 37.7131	 13.1243	-0.944712	0.893354	-2.48376
   415	 27.9684	 37.5697	 9.76177	-4.45388	0.759707	 7.34103
   416	 27.4158	 37.3108	 13.9819	-7.75903	 6.19961	-2.59566
   417	 29.8352	 39.2002	 10.0575	 7.74813	-4.20606	-5.54521
   418	 29.2531	  38.916	 14.3163	-3.66816	-5.99538	-4.19962
   419	 30.4508	 39.8782	 12.3566	-8.34236	-13.7679	0.854165
   420	 26.7815	 36.5918	  11.698	 2.89944	  3.7787	-4.31327
   421	 11.9549	 32.1393	 9.02091	-0.0284176	-1.61405	 1.11351
   422	 11.9108	 30.7849	  9.3691	-3.47558	-2.59472	 1.73912
   423	 11.7416	 30.4167	  10.703	-3.81245	-0.656033	 2.27156
   424	 11.6255	 31.3885	  11.691	 1.57813	-1.83828	 2.56164
   425	 11.6502	 32.7374	 11.3399	-0.515127	-2.43651	0.839367
   426	 11.8109	 33.1046	 10.0043	-2.29882	-4.37806	0.0839472
   427	 12.0112	 30.0254	 8.60443	 -4.7972	-2.45446	 3.25516
   428	 11.8533	 34.1834	 9.76299	 2.64108	 2.96122	 7.97301
   429	 11.7143	 29.3905	 10.9679	-4.47658	  6.6856	0.833637
   430	 11.5597	 33.5087	 12.1198	 3.90704	0.772924	 3.65204
   431	 11.5327	 31.1006	 12.7113	 12.4554	-0.68197	 -2.7639
   432	 12.1035	 32.4471	 7.97917	 5.26256	 2.88678	0.332541
   433	 30.4214	 29.3189	 9.48521	-0.174145	-1.17874	  3.7636
   434	 31.4444	 28.5033	 9.01107	-1.31565	 1.23446	-0.264982
   435	 31.5435	 27.1774	 9.46693	 -1.0035	-2.16486	-0.591014
   436	 30.6159	 26.6875	 10.3991	-0.320424	-2.12289	 3.43569
   437	 29.5862	 27.5179	 10.8565	-1.35384	-0.312135	 2.69294
   438	 29.4971	 28.8252	 10.3947	 1.16914	-2.23027	 1.62995
   439	 32.1831	 28.9092	 8.33311	 2.88869	  8.0389	 10.2862
   440	  28.695	 29.4739	 10.7779	0.572934	-0.315215	 8.53201
   441	 32.3366	 26.5386	 9.09779	-2.95478	-1.25471	-3.76377
   442	 28.8641	  27.117	  11.538	-0.828945	-5.70788	-6.84177
   443	 30.6946	 25.6606	 10.7481	0.456441	-2.96212	 1.44095
   444	 30.3607	 30.3453	 9.10359	 4.17805	-0.477865	-3.24929
   445	 16.8051	 20.2325	 21.9296	0.895508	0.420394	0.727776
   446	  17.946	 20.9887	 21.7939	-3.70497	-2.07394	 5.65683
   447	 18.1485	 22.1227	 22.5828	-3.55192	0.471609	 2.78323
   448	 17.2042	 22.4716	 23.5278	-0.805171	-2.38462	0.516112
   449	 16.0385	 21.7107	 23.6813	-3.83729	-1.23047	0.653993
   450	 15.8506	 20.5818	 22.8892	0.178888	-2.34695	 2.90654
   451	 18.7104	 20.7068	  21.072	 2.68934	-2.62428	 11.6916
   452	 14.9946	  19.972	 23.0294	  12.995	-5.97699	  8.6676
   453	 19.0661	 22.6752	 22.4196	 1.45853	-12.1798	-9.80799
   454	 15.3034	 21.9755	 24.4067	-1.58438	-5.56741	-4.06368
   455	 17.3273	 23.3472	 24.1529	-10.7284	-2.78479	   1.103
   456	 16.6496	 19.3556	 21.2989	 1.31707	0.464509	-1.46662
   457	 15.1687	 16.7166	  11.405	 1.90235	-1.25271	0.291332
   458	 16.3632	 17.2789	   11.83	-0.230061	-2.86541	 1.13291
   459	 17.3304	 17.6445	 10.8868	-1.72068	 1.18995	0.390706
   460	 17.0978	 17.4126	 9.51824	-1.77082	-2.97359	-3.35044
   461	 15.9094	 16.8492	 9.11681	 1.81782	-1.65932	 2.22458
   462	  14.927	 16.4944	 10.0431	-1.12924	 -2.7298	-1.09945
   463	 16.5518	 17.4447	 12.9042	 6.97208	-2.58581	-6.47641
   464	  14.003	 16.0767	 9.69871	 2.29199	 4.47486	-5.78053
   465	 18.2902	  18.052	 11.1753	 5.19534	 -8.8322	-11.5983
   466	 15.7028	 16.6695	 8.07945	 -5.7605	-4.41705	 8.10543
   467	 17.8542	 17.7001	 8.81396	-1.93443	 1.17585	 4.26261
   468	 14.4242	 16.4604	 12.1539	 5.48032	 3.81319	 5.38597
   469	 20.7348	 19.6937	 38.5823	-0.903013	-1.22908	   1.807
   470	 22.0052	 20.2609	 38.4244	0.340365	-0.599434	 2.67118
   471	 22.2385	  21.586	 38.8341	0.416799	 2.55149	 4.01459
   472	 21.1992	  22.319	 39.3963	-1.37753	-1.99395	 3.21538
   473	 19.9436	 21.7658	 39.5429	0.451372	0.229275	-0.723504
   474	 19.7043	 20.4554	 39.1477	-0.770795	  2.4024	 2.19879
   475	 22.8161	 19.6933	  37.949	 2.31397	 4.06051	-7.68844
   476	 18.7256	  19.988	 39.2608	 8.25248	 4.72157	0.689418
   477	 23.2132	 22.0117	 38.6959	-2.51387	 -1.5204	0.269582
   478	 19.1476	 22.3433	0.00673879	 3.30624	-0.763649	 6.47789
   479	 21.3771	 23.3513	 39.6908	-2.54895	  0.3569	-2.61711
   480	 20.5253	 18.7148	 38.2569	-9.03297	 11.6236	-0.887014
   481	 35.2901	 34.7792	 12.5418	-5.10416	-0.232957	 -2.6096
   482	 34.0764	 35.4409	 12.5442	-1.03309	-0.303001	 1.47521
   483	 33.0904	 35.0618	 11.6255	-0.728747	-0.338517	 -1.2772
   484	 33.3239	 34.0226	 10.7381	-2.87627	0.176012	 1.45601
   485	 34.5554	 33.3581	 10.7494	-1.59706	-0.82553	 1.26461
   486	 35.5439	 33.7315	 11.6667	-1.52744	-3.27029	 2.55995