ITEM: TIMESTEP
2.97784
ITEM: NUMBER OF ATOMS
1200
ITEM: BOX BOUNDS
0	40
0	40
0	40
ITEM: ATOMS index type x y z
     1	 13.0592	 19.4761	 33.4138	0.810847	-0.309361	   4.422
     2	  12.296	 18.4289	 33.9041	 1.60062	-2.72379	 2.46159
     3	 11.2765	  17.862	 33.0877	-0.205169	 0.82212	 4.99536
     4	 11.0368	 18.4118	 31.7683	-3.88717	0.0709642	0.990134
     5	 12.1127	 19.2014	 31.2086	 2.27149	-2.70934	-6.26745
     6	  13.202	 19.5911	 31.9759	-2.09708	0.125211	 2.95604
     7	 12.2803	 18.2018	 34.9593	-1.17429	 2.32876	 24.0474
     8	 14.2283	 19.2766	  31.652	 11.9212	 4.09018	-2.52867
     9	 11.1738	 16.7717	 33.0484	-5.49572	  3.0455	-14.1634
    10	 12.0729	 19.4083	 30.1376	 4.67724	  7.7907	-12.0453
    11	 10.0412	 18.9473	 31.7691	-1.16343	 2.46244	0.0174529
    12	 12.9374	 20.4711	 33.7807	  6.5492	-4.46311	  21.333
    13	  1.4372	 35.8717	 30.8956	  1.3701	 4.35018	-2.36663
    14	 0.32715	 36.6237	 30.3967	-0.0261423	-0.662385	 1.05946
    15	0.563246	 37.8077	 29.6004	0.526154	  3.2469	-2.03702
    16	 1.74314	 37.7562	 28.7948	 3.00942	-4.08535	0.503318
    17	 2.89866	 37.0982	 29.3142	 2.23097	 4.05085	 2.18029
    18	  2.7618	 36.3122	 30.5239	 2.78605	-1.18846	-6.07926
    19	 39.5955	 35.9962	 29.8693	  6.1673	-4.75018	-16.5715
    20	 3.20893	 36.8672	 31.3656	-13.5298	 7.90335	 7.12236
    21	0.549237	 38.7128	 30.2521	  5.4071	-5.17147	-6.53009
    22	 3.45625	 36.4895	 28.5788	 15.3408	-7.46037	 3.81385
    23	 1.82633	 38.4559	 28.0001	-25.2389	 -3.6055	-6.49743
    24	 1.39859	  35.691	 31.9355	-18.3316	 3.94683	  3.6581
    25	 1.85336	 22.8483	 37.3153	 1.03723	 2.60014	 1.09874
    26	 1.45833	  22.911	 38.6884	 1.86512	0.589753	 1.31653
    27	 1.59539	 24.1407	 39.3669	0.957992	-2.51743	-1.39344
    28	 1.54291	 25.2998	 38.6591	 3.19915	0.978046	0.984105
    29	 1.80538	 25.3367	 37.2502	-1.05602	 1.04057	 1.23016
    30	 1.77862	 24.0595	 36.5592	0.388111	-0.635609	0.303462
    31	0.605932	 22.3116	 38.9618	-0.863708	-0.57441	 4.10899
    32	0.966454	 24.0933	 35.8157	0.0119985	  12.049	 7.49641
    33	 1.21707	 24.1588	0.348675	 3.11723	 14.2353	0.719326
    34	 2.60543	 25.9893	 36.8911	 -2.1943	-9.05321	-2.20361
    35	0.727657	 26.0316	 38.8402	 2.15451	-1.56774	0.441969
    36	 2.77672	 22.3038	 37.1817	 5.83388	-9.48007	-4.83597
    37	 23.0179	 38.5735	 35.0743	0.0494466	-0.996627	-1.27375
    38	 24.1936	  38.061	  34.499	-4.69315	-4.94903	-2.44273
    39	 23.9699	 37.1309	 33.4181	0.573665	 3.08101	 1.98615
    40	 22.8115	 36.2866	 33.4147	 1.00991	-0.769807	 2.54651
    41	 21.6505	 36.9201	  33.957	-1.06364	 3.36945	-0.921455
    42	  21.772	 37.8734	 35.0385	 2.19605	-2.71444	 -2.3022
    43	 24.8306	 37.6159	 35.3134	 4.81885	 3.44595	0.0649789
    44	 21.3819	 37.5251	 36.0154	 1.05496	0.882293	 2.10241
    45	 24.1725	 37.4838	 32.4509	0.965936	-0.0409266	 -11.722
    46	 20.7346	 36.8727	 33.4426	-7.39073	 2.67588	0.738658
    47	 22.9854	 35.3095	 33.7764	 18.9792	-0.962675	-1.03509
    48	 22.9899	 39.6419	 34.9216	 7.12172	 11.2843	-17.0718
    49	 32.8954	 24.5319	 35.1026	-5.09037	 2.22405	-1.70387
    50	 33.4471	 25.7364	 34.6729	-0.753212	  5.0458	 3.39582
    51	 32.9355	 26.9742	 35.2296	-0.0159698	 2.66346	 1.87807
    52	 31.5415	 26.9631	 35.5471	 2.72954	-1.49895	-0.755207
    53	 30.8969	 25.7124	  35.879	-3.57991	-0.794837	-0.838499
    54	 31.5395	  24.544	 35.3749	 3.31085	  1.1974	-0.896683
    55	 33.6078	  25.722	 33.5862	-5.23943	 3.47104	-7.74496
    56	 30.9512	 24.0113	 34.5699	0.327502	-1.25049	-0.729532
    57	 33.6001	 27.3444	 36.0062	 4.47155	 1.24613	-2.52408
    58	 30.6573	 25.7619	 36.9157	 4.83505	-2.12213	-0.628849
    59	 30.8991	 27.5647	 34.8833	 3.23142	 8.18782	 3.45734
    60	 33.4804	 23.9086	 35.7778	-8.68646	-11.7528	-6.71518
    61	 29.4472	   30.08	 21.5622	 1.19384	-0.903773	-0.922093
    62	 28.0571	 30.1741	  21.187	-2.67676	-1.45199	-1.51487
    63	  27.425	 29.0907	 20.6086	-2.64607	 3.46045	-0.808842
    64	 28.0249	 27.7925	 20.6646	 4.14013	 1.04313	 2.23476
    65	 29.3889	 27.6972	 21.0059	 1.09499	-2.01877	 1.20095
    66	 30.1093	 28.8259	 21.3925	 1.65545	0.371019	  2.2248
    67	 27.5186	 30.6716	 21.9419	-7.31671	-6.41469	 5.79456
    68	 30.9062	 28.6966	 22.1491	 4.97684	-0.967176	 2.42327
    69	 26.9912	 29.3644	 19.6263	 2.15929	 4.77814	  3.4329
    70	 29.9257	 27.1131	 20.2475	 5.48007	 7.24903	-10.2596
    71	 27.4713	 27.0445	  21.183	-5.99244	  8.3716	 -7.7166
    72	 29.9652	 30.8824	 21.0759	-2.36997	-4.06777	-13.1284
    73	 6.20235	 26.7456	 11.1328	-1.32368	0.773168	0.523069
    74	 5.26581	 26.4881	  12.134	0.109328	-2.17112	 2.83654
    75	 4.15749	 25.6197	 11.7877	-1.77439	0.830005	  -4.122
    76	 4.14572	 24.9149	 10.5475	-4.67617	 1.37111	0.812344
    77	 5.20479	 25.0593	 9.58946	-2.72448	-1.45462	0.540432
    78	 6.11815	 26.1495	 9.84583	0.646091	-3.88876	-5.91736
    79	 5.58186	 26.2077	 13.0989	 6.01648	 4.71377	 -6.8322
    80	 7.03515	 25.9492	 9.36302	0.890302	 2.07689	-11.0223
    81	 3.24623	  26.266	 11.7721	 11.4645	  3.3468	 8.00523
    82	 5.73516	 24.0809	 9.48079	 5.65972	-0.85376	 -11.593
    83	 3.19764	  24.878	 10.0715	  23.255	 8.80505	 4.27325
    84	  6.5298	 27.8231	 11.1471	-3.55053	 4.75974	  4.5447
    85	 17.3508	 28.2308	 31.8889	-0.308669	 1.20487	-1.46878
    86	 16.5082	 27.3943	 31.0792	 -2.0436	-1.24542	 0.25959
    87	 15.5775	 26.6152	 31.8485	0.486139	-0.645059	-0.316805
    88	 15.3672	 26.7471	 33.2194	0.502819	-2.73737	0.962498
    89	 16.0943	 27.7233	  33.852	 1.74005	 4.92224	 1.01352
    90	 17.0453	 28.5996	 33.2197	-6.54732	-2.71698	-1.92701
    91	 16.0452	 28.0101	 30.2948	-0.543255	 1.59772	 5.86072
    92	 16.6243	 29.6201	 33.1863	-1.98081	  10.988	-10.9861
    93	  15.706	 25.5183	 31.6124	 -6.4128	 7.27881	 9.68971
    94	 16.4191	 27.5492	 34.9157	 5.71355	-3.89608	  13.829
    95	 14.3345	 26.6868	 33.6177	0.365496	-3.57067	 2.57515
    96	 18.3737	  28.104	 31.6119	 4.03731	 -12.381	-12.2686
    97	 20.5091	 35.2841	 18.3847	-2.60772	 1.62023	 -1.8522
    98	 20.0217	 34.3117	  17.427	-3.49666	-0.116955	 1.55907
    99	 19.0836	 34.7609	 16.4527	 4.72822	 3.52205	-0.618025
   100	 18.1904	 35.7407	 16.8814	 1.99101	-3.12294	 -1.1035
   101	 18.7395	 36.8059	 17.6791	-1.14273	 -1.2418	-0.863548
   102	 19.8721	  36.557	 18.5289	 2.73795	-0.103714	-0.44023
   103	 19.6019	 33.4746	 17.9728	-8.63553	 22.7163	-16.6214
   104	 19.5555	 36.7101	 19.5312	 7.77986	 1.76211	-0.362251
   105	  19.528	 34.9182	 15.4783	-18.3081	-9.22667	0.155893
   106	 18.8358	 37.7378	 17.2019	-13.6771	 10.9684	 7.23564
   107	 17.1799	 35.5471	 17.1148	   3.305	 8.82526	-11.8586
   108	 21.5618	   35.24	 18.6463	 10.3369	 11.6941	-23.6116
   109	 26.3427	 31.8347	 3.50338	 2.77666	-0.74124	-2.66785
   110	 27.5418	 32.6394	 3.46789	-2.83756	0.461007	 1.64822
   111	 27.7914	 33.5958	 2.44848	-0.12392	 1.93334	-2.37552
   112	 27.0725	 33.3884	 1.20779	 3.14106	  2.3424	-1.38139
   113	 25.8554	 32.6635	 1.21012	-0.172497	0.692308	 1.36716
   114	 25.6103	  31.757	 2.26527	-0.825062	 3.97272	-0.968529
   115	 28.4262	 32.2157	 3.86566	-1.32653	 2.08045	 2.96667
   116	 25.4701	 30.6917	 1.92543	 6.77421	-2.61562	  9.9098
   117	 27.6896	 34.5956	  2.9132	-3.82401	 -8.3514	 1.00066
   118	 24.9273	 33.2124	0.942171	 2.97314	-6.40192	 1.42409
   119	 27.7918	 33.1653	0.369453	 13.6945	-5.28023	 3.15751
   120	 25.7917	 32.1463	 4.39728	 -7.7761	 16.4669	 4.26276
   121	 20.1965	0.717349	 7.44887	-0.634774	0.0757906	-2.26339
   122	 21.4666	0.717272	 6.75686	0.0974865	0.366314	  0.5716
   123	 22.6164	0.535841	 7.60401	-0.0192073	-0.999964	 1.89543
   124	 22.4824	0.307621	 9.01744	0.0899728	 2.02164	-1.22418
   125	 21.2079	0.673438	 9.55553	0.244455	 3.42515	-1.20967
   126	 20.0732	0.542664	 8.79897	-0.042126	-3.12109	0.625492
   127	  21.509	 39.9421	 5.96997	 2.53941	 12.4532	0.0413294
   128	 19.4923	 39.6454	 9.13087	-3.48651	0.670831	 15.2172
   129	 23.2919	 39.8308	 7.09462	 0.46898	 4.46923	-0.933307
   130	 21.2452	 1.29521	 10.4472	0.330107	-13.0443	-3.87206
   131	 23.2583	0.931587	  9.5482	0.787071	-4.23869	-12.0326
   132	 19.6306	  1.5487	 7.08865	-3.11982	-4.27717	-7.55969
   133	 18.9623	 22.6157	  29.345	0.835818	-0.523267	-0.278375
   134	  19.387	 22.2171	 30.6601	-0.261047	-1.93031	 1.11075
   135	 19.1323	 20.8624	 30.9616	-2.03191	0.580316	-0.279159
   136	 18.1052	 20.1384	 30.3574	 3.32879	-0.265472	  2.5492
   137	 17.7489	 20.5714	 29.0492	0.999909	-1.00835	 2.00806
   138	 17.8666	  21.963	  28.711	 2.61392	 3.20639	-0.406443
   139	 19.3283	 22.9486	 31.4526	 6.21694	-5.32728	0.838385
   140	 16.9256	 22.4499	 28.8424	0.350694	 4.15235	0.516247
   141	 19.8981	  20.325	 31.5763	  -10.58	-15.0653	0.939825
   142	 18.1682	 20.0064	  28.234	 1.69998	 2.83003	 1.54223
   143	 17.2053	  20.143	 31.0283	 16.5115	 2.73483	 2.62394
   144	 19.7798	 22.8308	  28.712	-2.03764	-2.00244	 14.0712
   145	 19.0686	 29.4582	 18.1587	0.744592	 3.32218	0.968068
   146	 18.9034	 29.4479	 16.7574	-0.267109	-0.156578	0.158337
   147	 17.7938	 28.7584	 16.1329	-0.819208	-4.27974	 2.94646
   148	 16.9599	   27.99	 17.0041	0.786034	-0.535046	-2.36814
   149	 16.8704	 28.4057	 18.3879	 4.06281	-1.53163	 1.59413
   150	 18.0876	 28.7734	 18.9409	-0.473458	-1.90822	-3.65312
   151	 18.9597	 30.4221	 16.2245	-0.583304	-2.87209	   -3.82
   152	 18.4546	 28.2215	 19.7755	 18.1427	-14.1256	-9.25267
   153	 17.2316	 29.3014	 15.4204	 3.05381	-10.1429	-1.75981
   154	 16.1989	 29.3117	 18.3974	-4.73578	0.079608	-13.2053
   155	  17.109	 26.9217	 16.8997	-2.45087	 8.49284	-4.45995
   156	 20.1023	 29.2587	 18.4007	 4.44007	-13.0481	-2.00191
   157	 38.9454	 28.8114	 8.00167	-0.141847	-1.35563	 2.32375
   158	 39.8111	 29.8856	 8.37784	0.407818	 1.87905	-3.43428
   159	 1.22078	 29.7006	 8.19424	 4.00998	 -4.3367	0.706908
   160	 1.64472	 28.7899	 7.23956	-2.25195	 2.65238	-1.40794
   161	0.776809	 27.8101	 6.74776	0.889282	-1.19004	-3.68662
   162	 39.3706	 28.0045	 6.93318	 1.03032	0.477497	 -2.3656
   163	 39.3922	 30.8498	 8.46216	  8.8367	-4.93783	  7.7815
   164	 38.9295	 28.2112	 5.92998	-14.4259	 -6.2301	-8.71069
   165	 1.64237	 29.5512	 9.19146	-9.38815	 -1.7922	-8.81198
   166	 1.17349	 26.8255	 7.05027	-4.65932	-6.09112	 8.61755
   167	 2.38546	 29.2057	 6.50275	-11.1269	 21.1684	 16.5768
   168	  38.354	 28.3245	 8.74157	 1.07838	-7.14953	 3.08051
   169	 14.7885	 34.5246	 32.8057	-0.884729	 1.07354	 2.90292
   170	 13.6956	 35.4727	 32.8917	 4.41263	-1.05593	-0.0135383
   171	 13.3941	 36.3038	 31.8573	-0.946718	 5.67718	-5.05772
   172	 14.2612	 36.4419	 30.8042	-1.07255	 1.72807	0.0390535
   173	 15.6183	 36.0346	  31.094	 2.55106	-3.48841	 -1.8834
   174	 15.7949	 34.8428	 31.8079	 -1.0968	 1.67354	 1.82361
   175	 13.7267	 35.8764	 33.8967	 2.23595	-6.70279	 10.2434
   176	 16.6837	 34.2851	 31.7751	 -17.644	 6.14525	-18.8277
   177	 12.3633	 36.6457	 31.7596	 9.06837	 3.21282	0.523626
   178	 16.2161	 36.8937	 31.2554	-11.1885	-24.3271	 3.04168
   179	 14.0367	 35.9458	 29.8144	 1.81639	 6.66609	 6.89567
   180	 14.3433	 33.5497	 32.7885	-1.98886	0.547878	-1.32276
   181	  24.019	 6.83367	 33.3806	-1.33732	-1.26145	-2.16644
   182	 23.3251	  7.8119	 34.1348	-0.419486	-1.82196	 2.02498
   183	 22.1436	 7.44341	 34.8673	-4.05904	0.639904	    2.24
   184	 21.7188	 6.13359	 34.9149	0.513926	-1.46187	-3.34114
   185	 22.2532	  5.1732	 34.0017	-0.65777	0.691961	-0.80215
   186	 23.5386	 5.47752	 33.4141	-0.689466	-0.344206	 1.06846
   187	 24.0051	 8.24044	 34.9076	-7.25992	-6.48822	 10.1052
   188	 24.3802	 4.83276	 33.7019	 4.61935	  14.123	-4.75075
   189	 21.3899	 8.23704	 34.6765	-0.666609	-0.130449	-9.20056
   190	 21.4332	 4.95117	 33.2976	 9.12925	 12.0554	 4.39123
   191	 21.3354	 5.70448	 35.8292	  3.6933	  12.939	 2.87322
   192	 24.4288	 7.10962	  32.403	 1.16515	 -5.5228	-15.3644
   193	 30.4798	 32.5885	  38.727	  1.7695	 2.68849	0.264319
   194	 29.9164	 31.3406	 38.2482	 1.47681	-3.47265	-0.00680379
   195	 29.6231	 31.2732	 36.8747	 2.44761	 1.90001	 1.80108
   196	 29.2717	 32.4275	 36.1287	-3.66335	-3.18645	-2.19146
   197	  29.501	 33.6838	 36.7676	-1.10625	 2.34383	0.395316
   198	 29.9994	 33.7904	 38.1026	-2.71283	0.913519	-1.42098
   199	 29.3183	 30.8816	 38.9902	-10.4933	-9.48381	 6.66304
   200	 30.8232	 34.5269	 38.0801	 9.17699	 9.33412	-6.76346
   201	 30.1008	 30.4395	 36.3385	-0.367541	-2.32573	 4.51064
   202	 28.5948	 34.2881	 36.6292	  13.878	 1.97043	 4.62558
   203	 29.4826	 32.3949	 35.0643	-0.567698	 13.6697	 2.89307
   204	  30.313	 32.6314	 39.8438	-4.99367	-3.95216	 5.00225
   205	 25.8285	 9.58881	  39.073	 2.49905	  1.5298	-2.25017
   206	 27.1087	  10.165	 39.0106	-2.88137	-1.86227	-0.440737
   207	 27.2735	 11.5499	 38.6894	-0.445438	0.666462	 2.35517
   208	  26.128	   12.36	 38.6078	 1.68835	0.768969	-1.09791
   209	 24.8102	 11.7986	 38.8341	-1.07502	0.720873	-3.91971
   210	 24.6573	 10.4121	 39.1971	-1.38829	 1.05578	 1.76314
   211	 27.7434	  9.7777	 39.8575	 -1.2571	 3.08647	-0.611335
   212	 24.2386	 10.3557	0.181393	 7.03881	 9.69193	-1.10915
   213	 28.1532	 11.8171	 38.0514	-5.76282	 11.5024	-4.98963
   214	 24.1805	 12.1452	 37.9743	 -7.6122	 -9.2955	 3.98044
   215	 26.3133	 13.2739	 39.2458	-2.25338	-18.9686	 6.93028
   216	 25.6565	 8.64037	 38.6253	-8.78879	-0.499508	-0.357281
   217	 16.7909	 8.94964	 3.50269	-2.10473	0.184243	 5.91986
   218	 16.7914	 8.09481	 4.66464	0.225955	 2.26221	-1.29545
   219	 16.7163	 8.66864	 5.90804	-0.503526	 1.42248	 2.69281
   220	 16.2082	 10.0079	 6.07017	 1.08009	-2.03223	-0.208394
   221	 16.3597	 10.8503	 4.92365	-0.149093	 1.46567	 1.26852
   222	 16.3756	 10.3241	  3.6554	  -2.493	-0.683055	-2.22653
   223	  16.194	 7.22635	 4.46669	0.394641	 5.99255	-9.16115
   224	 15.4564	 10.4085	 3.06701	 1.00691	-0.585716	 8.94563
   225	 17.3836	 8.29874	  6.7113	 11.9747	 9.46818	-15.5882
   226	 16.9999	 11.7668	 5.06694	-6.37586	-1.38147	-9.67053
   227	  15.169	 10.0983	 6.38927	-12.5159	 1.16674	-7.63936
   228	 17.8075	 8.93056	 3.10199	 6.31993	-3.79343	 2.21998
   229	 2.40282	 22.5024	 19.9063	0.640019	-0.934617	0.642338
   230	 1.37437	 23.3499	 19.3722	0.338113	 2.27322	-0.983011
   231	 1.65846	 24.1722	 18.2778	-1.99804	  1.4025	  1.5822
   232	 2.66411	 23.8041	 17.4306	-0.627697	-3.25374	 2.63312
   233	 3.75842	 22.9804	 17.9083	 4.10974	-2.23637	-1.54369
   234	  3.4495	 22.1634	 19.0546	0.470202	-3.33563	 2.92225
   235	0.320254	 23.0133	 19.5349	0.779762	  4.0785	-5.87852
   236	 3.60459	 21.0706	  18.828	 4.84973	-1.56297	0.783655
   237	 1.67132	 25.2459	 18.6283	-14.0592	0.720045	  5.1405
   238	 4.61035	 23.6052	 18.0186	-5.68913	-13.7537	0.539597
   239	 2.29808	 23.2996	 16.5329	 15.7875	 4.20447	-1.58241
   240	 2.44917	 22.3335	 20.9716	-3.44933	 2.18712	-4.64425
   241	0.758497	 14.8968	 32.6455	0.184053	-0.722606	 3.28935
   242	 1.77423	 15.8992	 32.8672	-1.69926	 -1.3142	 2.62518
   243	 2.43302	 15.9256	 34.1098	-0.781636	 1.23982	 -0.6527
   244	  2.0069	  15.155	 35.2215	-0.530636	-0.476707	 2.44339
   245	0.839139	 14.3271	 34.9951	-0.249133	-1.62127	 2.75569
   246	0.458434	 13.9908	 33.6512	0.390744	0.375886	-0.560914
   247	 2.48716	 16.0374	 32.0014	-3.02986	 10.6169	-5.79442
   248	0.234663	 12.9752	  33.468	 5.17948	-1.27189	 13.8119
   249	 2.52199	 16.9936	 34.4239	 12.5854	-6.07064	 8.34037
   250	0.00338499	 14.7439	  35.565	-0.35557	-5.19562	0.126171
   251	  2.7352	  14.699	 35.8442	-14.9236	-1.14355	-5.30473
   252	0.00365253	 15.0688	  31.921	-5.40585	-13.2678	 -2.2199
   253	 27.3628	 15.4842	  11.676	 2.64259	 1.42272	0.212344
   254	 26.3847	  14.715	 12.2884	 2.88129	-1.86712	0.965535
   255	 25.1871	 15.3093	 12.7631	-1.02141	-2.49964	-1.94905
   256	 24.8098	 16.5677	 12.2495	-1.56216	-1.82517	-0.242011
   257	 25.8174	 17.3761	 11.6123	 2.18427	 0.53707	0.256145
   258	 26.9719	 16.7194	  11.114	-2.67514	 1.97413	 -2.2621
   259	 26.1441	 13.8038	 11.7003	 6.24728	-9.07669	 19.2349
   260	 27.0951	 16.9021	 10.0822	-4.22308	-4.93545	 12.0047
   261	 25.0343	  15.212	  13.826	-4.34081	 6.50108	 8.15683
   262	  26.007	 18.3089	 12.1162	 0.60461	-9.67287	-1.31122
   263	 23.9982	 16.4103	 11.5018	 9.41056	 2.72166	-4.23207
   264	 28.3848	 15.1496	 11.6234	 17.5831	 7.38664	-6.62381
   265	 12.0713	 12.4597	 24.1268	-2.49308	-3.78167	-0.0318545
   266	 12.3247	 12.1122	   22.81	 1.35336	-2.80999	 1.27126
   267	 13.1479	 12.8905	 22.0259	-0.481338	0.275524	-1.53133
   268	 14.0897	 13.7568	 22.6776	-0.147174	-1.60593	-0.138577
   269	 13.8641	 14.1814	 24.0325	 2.62534	-3.86036	 4.25208
   270	 12.9216	 13.4303	 24.7814	0.744601	-4.87724	 2.35719
   271	 12.4584	 11.0039	 22.7317	-2.65928	-9.81029	-0.925647
   272	 13.3922	 13.0915	 25.6782	 8.17353	-0.578073	-8.40906
   273	 12.8322	 13.2225	 21.0489	 2.01734	 -7.3612	 5.32711
   274	 13.6641	   15.29	 23.9818	  11.037	 1.31297	0.102068
   275	 15.1231	 13.3558	 22.5136	-0.629753	  5.1657	 6.03593
   276	 11.0645	 12.4789	 24.4976	 4.19622	0.172204	 1.62237
   277	0.820662	 38.0665	 17.3855	-1.44742	 -1.1833	-0.803791
   278	 1.56699	 37.8496	 16.1856	-1.08337	 2.30755	0.357429
   279	 1.77759	 36.5758	 15.7567	 1.54895	0.996801	-4.57425
   280	 1.53389	 35.4569	 16.6154	-2.55973	0.883499	 1.06071
   281	0.720385	   35.67	  17.779	0.558037	-1.90153	  1.9032
   282	0.443404	 37.0165	 18.2214	 1.93061	-0.428844	0.822572
   283	 2.49694	 38.4636	 16.1264	-0.910555	 -5.1071	 -2.6881
   284	0.737034	 37.0805	 19.2981	-2.15387	-8.74744	-1.56489
   285	 1.74555	 36.2535	 14.7476	 5.43418	-7.76114	-1.61402
   286	 39.8304	 34.9972	 17.6949	-20.2308	 9.06229	-2.84049
   287	 2.35433	   34.79	 16.8226	   4.036	 6.24259	-6.09117
   288	0.296883	 38.9944	 17.5196	-7.68401	 6.76944	-4.63426
   289	  21.676	 3.16281	 26.3291	-1.61085	 1.23925	-0.575204
   290	  20.388	 3.39248	 25.7124	 2.13006	-0.0121413	-0.36125
   291	 19.9278	 4.76147	 25.6581	-1.81255	 -1.4933	 2.44839
   292	 20.7428	 5.80415	 26.1358	-0.142327	 1.66069	 -1.6618
   293	 21.8427	 5.50969	 26.8588	-0.80359	0.901767	-0.861219
   294	 22.5075	 4.25506	 26.7112	-3.39825	-1.93657	-2.21562
   295	 19.6367	 2.61017	 25.8061	  7.5192	 1.60619	-0.211262
   296	 23.3088	 4.39385	  25.953	0.235539	-1.02769	 3.52622
   297	 18.8973	 4.70519	 26.1018	0.763886	 2.87909	 4.12437
   298	 21.6574	 5.63178	 27.9413	 22.5276	-4.84513	 2.02062
   299	 20.7259	 6.74313	 25.5433	-7.79743	 17.1153	-2.88054
   300	 22.2461	 2.45595	 25.7245	 9.40692	-2.73049	-4.81344
   301	 18.3505	 36.4253	 6.35361	 -2.0214	 -1.7388	0.929913
   302	 19.4415	 35.8344	  5.6371	  2.6538	 3.68636	0.668764
   303	 19.3065	 34.5328	 5.00792	-2.22102	0.0803345	-2.88276
   304	   18.47	 33.6844	 5.74242	 1.71869	   0.844	-2.06386
   305	 17.3048	 34.1804	 6.41668	-3.12899	0.614299	-0.406274
   306	  17.192	 35.6231	  6.5414	0.227704	-2.25239	-1.57463
   307	 20.4084	 36.0027	 6.03739	  8.1791	 5.69865	-6.10882
   308	 16.2883	 35.9809	  6.0743	-3.42432	-11.9019	 3.95776
   309	 19.0038	 34.6213	 3.96568	-15.0397	-9.73751	 4.04043
   310	 16.4159	  33.686	 6.11669	 3.67285	-19.7673	 11.2986
   311	 18.9802	 32.9048	 6.27502	 -1.2347	-3.89745	  0.8919
   312	 18.7131	 36.9953	 7.21353	-4.17181	-0.647286	-3.09219
   313	 32.9846	 20.7775	 19.4082	 3.23584	  0.1845	-0.164718
   314	 32.4801	  19.443	 19.4195	-0.497089	-2.64923	-4.33285
   315	  32.225	 18.7745	 20.6767	 2.98331	-0.792788	0.152721
   316	 32.7955	 19.2875	 21.8094	-3.68073	 1.11223	0.917657
   317	 33.1353	 20.6858	 21.8582	-1.97173	 2.05269	-2.05974
   318	 33.4684	 21.2927	 20.6649	-1.22843	 1.82021	-1.51099
   319	 32.9196	 18.7428	  18.762	-3.08198	-1.27266	 10.6887
   320	  34.534	 21.6511	 20.6631	 1.77773	-5.09334	-9.92603
   321	 31.1635	 18.5369	 20.7152	-9.05152	-11.9674	 4.26841
   322	 32.3515	  21.219	 22.3485	0.507776	-17.2417	  13.004
   323	 32.9669	 18.7091	  22.692	-4.18557	 8.48986	-6.15318
   324	 32.3103	 21.5073	 18.9941	 1.97042	-5.28207	 5.40072
   325	 3.31316	 4.64029	 38.6729	0.658865	-1.74135	0.288024
   326	 4.45019	 5.39479	 38.9932	0.325055	-1.74581	0.909546
   327	 4.90333	 5.40375	0.272647	-4.71234	 2.52979	-0.630178
   328	 4.60136	 4.30387	 1.14047	0.904785	-0.623855	  2.7835
   329	 3.48713	 3.43177	0.869627	0.390613	0.464069	0.189652
   330	 2.85887	 3.61541	  39.578	-2.91968	 3.52115	0.262426
   331	 5.17009	 5.55703	 38.1926	 2.98243	 5.42435	-0.139023
   332	  2.3573	 2.76689	 39.1466	 7.75496	-2.05907	-1.11515
   333	  4.9941	 6.35848	0.851841	-1.76249	-5.09432	-11.7503
   334	 2.75023	 3.55448	 1.71236	 1.88362	 6.39982	-13.0865
   335	 5.48639	 3.76014	 1.53736	 4.80586	-6.06036	-5.19374
   336	 2.58537	 5.04292	 37.9663	-4.67428	 5.05531	-12.4242
   337	 8.19628	 9.41836	 3.18832	 2.89946	 1.11678	-1.70902
   338	 8.05216	  9.4836	 1.75744	0.0760657	-6.14022	-0.260397
   339	 6.82836	 9.58762	 1.09223	-0.486966	0.913528	-1.41113
   340	 5.69546	 9.80254	 1.92741	 2.43629	 -3.1475	-4.14971
   341	 5.69183	 9.29978	 3.26332	-1.41131	 0.83785	 -1.0767
   342	 6.94154	 9.45772	 3.89443	-1.94866	  1.7501	 1.04535
   343	 8.86751	 10.0674	 1.29247	 10.4359	  8.0004	-11.4387
   344	 7.01909	 10.2081	 4.71095	-11.3948	-6.12929	 13.0308
   345	 6.69974	 8.86953	0.294469	 3.55402	 8.09547	-4.22391
   346	 4.91776	 9.61481	 3.93171	0.657736	 3.38892	 2.61325
   347	 4.80928	 9.57599	 1.29401	-4.18274	-1.25666	-4.38535
   348	 8.88733	 8.59285	 3.46771	-4.21089	-5.88441	 7.86385
   349	  33.688	 24.0561	 25.3914	-0.811343	-2.63364	-3.06182
   350	 33.1326	 25.3378	 25.1923	-3.91015	 1.18772	0.679873
   351	 33.4595	 26.2781	 26.1896	-1.85085	 1.82424	-0.729603
   352	 34.5953	 26.1876	 27.0155	 2.45969	 5.16478	 1.24652
   353	 35.0118	 24.8252	  27.217	 1.00229	0.940665	-0.394354
   354	 34.8371	 23.8337	 26.1763	-0.531971	-4.26417	 5.58849
   355	 33.1611	  25.688	 24.1473	 2.06218	-4.55173	-6.57838
   356	 35.6845	 23.3199	 25.7953	  -1.166	-1.28405	 2.58783
   357	 32.5807	 26.5671	 26.8133	-7.85558	-2.54134	 -7.3917
   358	 34.9777	 24.4871	 28.2311	-3.84974	 7.35861	 7.64802
   359	 35.3531	 26.8835	 26.7089	 -7.5369	   6.431	-3.10985
   360	 32.9841	 23.1857	 25.3435	 13.3009	 5.07723	 1.59157
   361	 17.6677	 16.2233	 1.19338	 1.94295	 2.46638	-4.98445
   362	 17.8543	 14.9308	0.571621	  4.3478	-1.32549	 2.96278
   363	 17.4057	 13.7359	  1.2123	 0.60836	 0.16124	   1.458
   364	 16.4291	 13.9267	 2.23655	   2.174	-1.05931	-1.52076
   365	 16.0219	 15.1882	 2.72865	 1.29062	-0.624748	  1.4873
   366	 16.5322	 16.3336	  1.9969	 2.32366	0.258993	 3.45769
   367	  17.316	  15.004	  39.601	-6.31771	-5.92295	 12.9288
   368	 15.7481	 16.9547	  1.6696	-8.67973	 -1.7296	 -13.254
   369	 18.0929	 12.9594	 1.42831	 4.09822	 2.61857	-5.22241
   370	  16.487	 15.2939	 3.74517	-5.34831	 6.18806	 2.94359
   371	 15.6084	 13.1812	 2.19208	  2.2974	 9.22544	0.909975
   372	 18.6084	  16.624	   1.584	 6.24583	 7.03867	 6.90952
   373	 36.7933	 32.8806	 39.5743	  1.4848	0.292117	-0.108732
   374	 37.5245	 31.7254	 39.1114	 1.12371	 1.28083	-2.52586
   375	 38.7484	 31.3999	 39.8137	-0.0940224	-0.0692716	-2.30783
   376	 38.9895	 31.9876	 1.07983	0.237986	-0.619644	 5.18852
   377	 38.0433	 32.9073	  1.6595	-0.794922	-4.26186	-2.49094
   378	 36.8594	 33.1644	0.917125	-1.33507	-1.28241	0.0414196
   379	 36.8935	 30.8628	 38.8309	-7.36827	-4.85689	 2.99363
   380	 35.9396	 32.9517	 1.44013	 10.0893	 15.6281	 1.15889
   381	  39.626	 31.1794	 39.1756	 -9.7678	 5.16936	-4.14556
   382	 37.7825	 32.5569	 2.68444	-7.45102	 0.67404	-7.75497
   383	 39.9758	 32.3554	 1.21579	-7.57206	 10.1011	-0.617434
   384	 36.8416	 33.6712	 38.8561	 13.8621	 1.50525	-11.7019
   385	 29.0274	 32.6009	 16.2307	0.943816	 2.13308	0.784636
   386	   28.22	 31.9807	 15.2233	-1.03809	-3.68218	 1.87262
   387	  27.943	  30.589	 15.2468	0.774631	 1.67697	-0.343974
   388	 28.1666	 29.8618	 16.4769	-4.43407	-4.36948	-1.18972
   389	 28.9979	 30.4136	 17.4642	-0.0836265	0.652505	-0.432614
   390	 29.1884	 31.8481	 17.4185	 2.62922	0.526842	 1.61957
   391	 27.4065	 32.5888	 14.8917	 -2.9778	-2.63871	 14.0791
   392	 29.2586	 32.3648	 18.3747	 3.24132	 2.14472	-4.23598
   393	 27.9179	 30.0265	 14.3486	 2.53333	0.622501	 19.4664
   394	 29.9643	 29.8414	 17.5192	-6.11944	 10.9519	0.929012
   395	 27.3696	 29.2107	 16.7855	 2.88484	-0.737581	  3.4046
   396	 29.8519	 33.0842	 15.7594	 12.5619	 6.35647	-5.84228
   397	 11.9674	 38.0142	 25.8158	0.411567	-2.40464	 2.35475
   398	  10.912	 37.9231	 26.6561	-1.33764	0.369886	-0.336793
   399	  10.589	 39.0507	 27.5035	-1.80927	-0.687051	 1.97367
   400	 11.3745	0.228684	  27.474	-2.28001	 0.16393	0.103038
   401	 12.5507	 0.19522	 26.6644	  3.1664	-1.78348	-0.506296
   402	 12.6593	 39.2615	 25.6243	0.430215	 3.72158	 1.26833
   403	 9.95545	 37.5332	 26.2867	-9.38063	 6.87514	-14.1665
   404	 12.6626	 39.6866	 24.6416	 2.20296	-2.28401	-3.42756
   405	 10.3376	  38.767	 28.5681	 17.4605	 -3.9045	 1.32602
   406	 13.4101	0.295398	 27.2845	 15.7915	 17.7083	-0.858555
   407	 10.8212	 1.20705	 27.4205	-9.78585	-3.31729	-7.12155
   408	 12.4361	 37.1544	 25.3148	 3.77324	 1.66964	0.905917
   409	 27.2016	0.0126273	  7.6902	 1.35376	 1.46446	-6.01519
   410	 26.9987	  38.684	 8.19189	-0.522769	 2.75942	-1.95329
   411	 27.1846	 37.6695	 7.27023	 1.17853	0.944683	-5.07763
   412	 26.7166	 37.8985	 5.91882	-1.46676	-0.709913	 3.03824
   413	 26.7231	 39.2442	 5.42181	-0.985376	-0.969025	0.607365
   414	 27.0231	0.314462	 6.31669	 1.14663	0.810456	-0.186376
   415	 26.1991	 38.5906	 8.89494	 3.82567	-20.5179	-5.97063
   416	 26.4298	 1.20803	 6.23822	-5.96761	 1.13275	-0.296346
   417	 28.1732	  37.199	  7.2733	 0.23822	-12.3987	-12.7002
   418	 27.3759	 39.3691	 4.54194	-9.48966	-5.10811	-12.6938
   419	 25.7553	 37.3992	 5.72649	0.785011	-15.1322	-2.46481
   420	 28.1046	0.405612	  8.1165	-5.66016	-4.48495	 1.83527
   421	 12.3551	   29.48	  9.5134	 -4.2715	 1.39224	 1.57144
   422	 13.1336	 29.9992	 10.6243	-2.76545	0.940434	-1.24103
   423	 13.0189	  31.397	 10.9648	 1.55312	-3.16623	 2.01487
   424	  12.073	 32.1744	 10.2404	 3.90531	   2.097	-1.53344
   425	 11.4316	 31.6884	 9.13718	 3.16357	-1.32094	-1.64633
   426	 11.3793	 30.2684	 8.91685	0.731467	0.199214	0.0382064
   427	 13.2112	 29.3115	 11.5081	-4.30519	0.363793	 2.41324
   428	 10.3762	 29.8759	 8.86334	-2.05315	-7.52845	 -8.6509
   429	 13.9545	 31.9727	 10.9555	 10.2189	 7.06367	 2.09563
   430	 11.2623	 32.2651	 8.24704	-7.53449	 8.13763	-14.1483
   431	 11.5122	  32.904	 10.7978	0.411294	-1.46438	-6.99638
   432	 12.9858	 28.9104	 8.80498	-11.0855	 1.02553	-3.25203
   433	 32.1178	 29.7201	 12.4815	-1.31448	-2.54053	 2.33581
   434	 33.0659	 28.9455	 11.9145	 0.51997	0.752429	-1.70895
   435	 32.7978	 28.4246	 10.6219	 4.49565	0.566874	 1.61523
   436	 31.4734	 28.4545	 10.0637	0.343527	 1.20409	0.251812
   437	 30.5434	 29.2624	 10.7356	-0.31802	0.449741	0.180573
   438	 30.7154	 29.6797	  12.107	 2.02354	  3.6198	-0.417737
   439	 33.5068	 28.1276	  12.497	-1.14464	 12.2026	 19.6498
   440	 30.2487	 28.9153	 12.7055	-9.65545	-4.69192	-10.5113
   441	 33.4381	 28.9575	 9.91508	-4.08612	-2.11587	-23.3154
   442	 29.9671	  29.917	 10.1376	 2.52041	 10.1246	-2.91996
   443	 31.1859	  27.695	 9.37269	 4.92417	 10.9443	0.485094
   444	 32.4337	 30.7087	 12.8969	 2.28796	 -10.831	-2.65236
   445	 14.2702	 20.0776	 25.0582	-1.74596	-1.04311	 2.73482
   446	 13.8519	 20.0387	   23.68	 2.98939	  1.0001	-0.489343
   447	 14.1834	 18.9421	 22.8685	-1.78906	-1.77871	-2.97643
   448	 15.2456	 18.1855	 23.2297	-1.47213	 1.67045	-2.78941
   449	 15.6535	 18.0382	 24.6119	 2.02145	 1.69493	 1.90248
   450	 15.1953	 19.0501	 25.4948	-4.26295	 0.32262	0.738883
   451	  12.784	 20.3058	 23.6916	-14.6798	 20.2479	 8.45322
   452	 15.0333	 18.7095	 26.5436	-8.97102	-8.86189	-1.52031
   453	  13.279	 18.3896	 22.6346	 11.5851	  1.9045	  5.9214
   454	  16.782	 18.0295	 24.5881	 14.2175	-23.6865	 18.4673
   455	 16.0743	 17.9321	 22.6005	-5.25881	 6.86425	 -3.6297
   456	 14.7071	   21.08	 25.3288	 8.51483	 11.6834	-1.58788
   457	 20.7902	 14.6423	  7.5261	 3.15332	 2.40846	-0.37317
   458	  20.577	 15.0233	 6.24362	-2.77159	-4.48759	-1.65582
   459	 19.2514	 15.0428	 5.79699	-0.0618726	-3.86485	-2.50927
   460	 18.1516	  14.453	 6.53429	-1.60617	 2.95203	-2.10816
   461	 18.4431	 14.0165	 7.82247	 5.21508	0.694874	 1.69873
   462	 19.7776	 14.0169	 8.35292	 2.64226	-0.41174	-0.864754
   463	 21.3926	 14.9974	 5.47669	 9.50601	 1.50375	-7.63039
   464	 19.8728	 14.3551	 9.35776	-2.04552	-9.09686	 -6.1531
   465	 19.2236	 14.9495	 4.71947	 1.15201	0.206142	-2.45726
   466	 17.8779	 13.1149	 8.18949	 9.61033	-6.15713	  7.1029
   467	  17.242	 15.1068	 6.59375	-2.73268	-1.91304	0.312279
   468	 21.6005	 15.0007	 8.11649	 3.58721	0.611203	 19.3326
   469	 20.3013	 24.2455	0.569708	 -2.7328	  3.0462	-0.53818
   470	 20.0417	 24.4618	 39.1623	 -1.1192	-1.38913	-2.24686
   471	 21.1114	 24.4282	  38.264	-4.75135	  1.6643	 2.20492
   472	 22.4586	 24.2369	 38.7271	 2.23136	-1.57062	-1.14337
   473	 22.5496	 23.4614	 39.9183	 1.56018	 1.34057	-3.90532
   474	 21.5212	 23.5548	0.911138	-0.241104	-3.15471	  2.3112
   475	 19.1494	 23.8431	 38.9415	 1.62523	-2.35592	 5.26988
   476	 21.2994	 22.6057	 1.39377	-10.4174	  13.961	 17.1987
   477	 20.9588	 24.5659	 37.2153	0.924003	-1.58841	 -8.0256
   478	 22.9483	 22.4748	 39.6998	-1.15674	-4.34573	-19.1501
   479	 22.8813	 25.2594	 38.8899	-8.60739	 1.87312	-11.2478
   480	 20.1861	 25.1583	 1.20616	 7.54465	 2.61579	-2.44176
   481	 32.0389	 36.1219	 10.5005	-2.75288	 2.16585	-3.88121
   482	 33.0142	 36.2782	 9.45918	 1.82887	0.903952	0.980171
   483	 33.1222	 35.3223	  8.3846	-4.25479	-2.46293	0.731105
   484	 31.9578	 34.5049	 8.15194	0.0328794	 2.17764	 -1.0107
   485	 30.8329	 34.5712	 9.04687	-0.368323	-0.0374419	-1.93914
   486	 30.8459	 35.5175	  10.127	-0.599657	-1.00029	-0.936658
   487	   33.07	 37.2804	 9.08464	 2.45574	 7.52312	  10.772