ITEM: TIMESTEP
15.1718
ITEM: NUMBER OF ATOMS
1200
ITEM: BOX BOUNDS
0	40
0	40
0	40
ITEM: ATOMS index type x y z
     1	 9.58098	 22.4342	 28.8151	0.293447	-1.46409	-0.332595
     2	 10.0815	 22.8717	 30.0968	-1.02749	0.374543	-1.51038
     3	 10.4427	 21.9255	 31.0963	0.110403	-1.19727	-0.624639
     4	 10.1303	 20.5367	 30.8122	0.629006	0.342462	-0.605408
     5	 9.71335	 20.1297	 29.5316	-0.72865	0.295326	-0.237678
     6	 9.64539	 21.0809	 28.4752	0.0355669	-1.03998	 1.76717
     7	  9.4278	 23.6776	 30.4405	 2.37641	 6.05909	-0.229545
     8	 10.0372	 20.7237	 27.5575	  3.7375	-0.204134	 -4.1272
     9	  11.376	  22.008	 31.6119	-3.41072	-8.77738	-2.53373
    10	  10.208	 19.1943	  29.221	 3.14323	-1.52502	-2.49543
    11	 9.47499	 20.2045	 31.6442	-3.86268	-0.325857	-1.75811
    12	 8.74731	  22.975	 28.4452	-7.84728	-5.81562	-4.55832
    13	0.326642	 33.6589	 30.5205	0.387833	-0.912721	-0.873818
    14	 39.6287	 33.8902	 31.7466	0.597426	0.340372	-1.40059
    15	 39.9962	 34.9351	 32.6433	-2.31049	-0.841074	-0.870487
    16	 1.19144	 35.6493	 32.3059	-0.256717	-0.0715611	-0.0623645
    17	 1.94293	 35.3591	 31.1303	0.463154	 1.54942	-1.93882
    18	 1.64456	 34.1888	 30.3286	 0.83239	-0.302992	-1.09288
    19	 39.5533	 32.9133	 32.2988	 1.94119	 1.87965	 -1.0022
    20	  2.4187	   33.42	 30.4182	 2.56815	-1.59431	-2.59483
    21	 39.1672	 35.4506	 33.0374	 3.52519	0.501446	-2.98702
    22	 2.17147	 36.1426	 30.4639	 1.38498	-1.26474	-0.457945
    23	 1.87078	 35.8683	 33.0921	0.258263	 3.26555	 1.60132
    24	 39.7046	 33.7416	 29.6695	-1.46565	 6.30499	 7.49841
    25	 38.4501	 23.2204	 37.6017	-1.23622	-0.380325	0.451903
    26	 38.6713	 23.5247	 36.2736	-0.185376	0.139125	-1.19977
    27	 37.9749	 24.6126	 35.6285	 1.41244	-0.272245	0.446597
    28	 37.5056	 25.6399	 36.4436	0.0353376	-0.45552	-0.404584
    29	 37.5825	 25.5651	 37.8803	-1.36706	-1.70312	-0.19084
    30	  38.078	 24.3467	 38.4292	0.857694	0.193068	-0.785368
    31	 39.6286	 23.2365	 35.9238	 4.37457	 3.75321	 2.68669
    32	 37.8501	 24.0831	  39.419	-4.23809	-3.05468	   1.707
    33	 37.3497	 24.2775	 34.8112	-3.56025	 2.87838	-0.882122
    34	 38.1659	 26.4329	 38.2284	-2.04121	0.175405	-1.19655
    35	 36.5213	 26.0042	 36.1677	-3.34453	-2.00518	 4.11575
    36	 37.7474	 22.3854	 37.7347	-5.96543	 4.42689	-1.99505
    37	 22.9053	 37.6822	 35.6634	0.301832	-2.30134	-0.849876
    38	  24.025	 38.3196	 35.0903	0.900539	  0.2244	-0.457444
    39	 24.8112	 37.6709	 34.1034	-0.53483	-1.71393	-0.449122
    40	 24.4283	 36.3738	 33.5947	-0.43404	-0.723956	-1.45733
    41	 23.1229	 35.8903	 33.9525	 0.19882	-0.671853	0.118701
    42	 22.5764	 36.3608	 35.2046	0.880492	0.561239	-1.08883
    43	 24.6548	 38.6982	  35.874	-0.473933	0.388491	-0.139555
    44	 22.6509	 35.6162	 36.0244	 1.90078	-0.383391	-3.42972
    45	 25.8992	 37.7785	 34.2353	-0.634171	-1.35314	-2.81508
    46	 22.4672	 35.5614	  33.189	 7.35617	 1.51315	 1.50092
    47	 24.5928	 36.2795	  32.527	 3.03972	-3.21751	 1.30716
    48	  22.037	 38.3993	 35.5623	 1.81671	-0.167594	 -1.8676
    49	 34.0884	 24.8021	 34.0524	   1.788	-0.28124	0.444484
    50	 33.1037	  24.598	 34.9606	 1.50051	 0.38866	-1.91122
    51	 32.2464	 25.6901	 35.2136	0.259567	0.601493	-1.38997
    52	 31.9702	 26.6325	 34.1517	-1.01505	0.869441	-0.071376
    53	 32.8619	 26.6068	 33.0186	-0.398433	0.545682	-0.572086
    54	 34.0683	 25.8242	 33.0669	-0.00239012	-0.967407	0.540331
    55	 32.4171	 23.7232	 34.7576	 2.24113	-6.17577	-4.37148
    56	 34.9701	 26.4507	 32.9456	-3.25586	-5.16551	 1.50821
    57	 32.2654	 26.1161	  36.186	0.115351	-0.604293	  0.6709
    58	 32.3145	  26.362	 32.0955	-5.53488	 1.52838	 5.21833
    59	 30.9076	 26.7701	 33.9212	-0.60637	0.402868	-4.84753
    60	 34.8983	 24.0459	 33.9379	  1.2284	-1.14072	-3.61455
    61	 29.0959	 29.6557	 20.6001	-1.18335	0.504789	-0.319729
    62	 28.1997	 30.7932	 20.7113	-0.172846	0.985187	0.825735
    63	 26.8268	  30.625	  20.867	-0.883136	 -1.0094	-0.972938
    64	 26.2696	 29.3773	 20.4468	-0.784081	 1.38804	-1.42971
    65	 27.0639	 28.1966	 20.6707	-0.0928961	0.693693	-0.316224
    66	  28.478	 28.3655	 20.7073	-0.0663107	0.464718	-0.605218
    67	 28.5113	 31.6849	 20.1749	-0.664497	0.619661	 3.25904
    68	 28.9856	 27.7248	  21.388	-6.21216	-2.35788	-6.69284
    69	 26.2975	 31.1378	 21.6292	-4.01732	0.806926	-4.89192
    70	 26.6386	 27.3225	 20.2602	  1.0978	-2.22485	-0.37459
    71	 25.7474	 29.4076	 19.5171	-0.051475	-0.443683	-1.38186
    72	 29.6927	 29.6415	 19.7076	-2.74712	0.871544	0.701776
    73	 6.30463	 28.5538	 12.6701	0.782946	0.0299341	-0.220712
    74	 6.05058	 28.1246	 11.3231	0.0935837	-0.126676	0.112522
    75	 6.50304	 28.9719	 10.2851	 1.29351	0.0927572	-0.796242
    76	 6.99224	 30.2466	 10.4753	-0.60213	-0.902819	 1.19182
    77	 7.35311	 30.5765	 11.7841	 2.11465	 2.62778	-0.425894
    78	 7.16496	 29.6966	 12.9171	-0.0450509	-0.027292	0.560137
    79	 4.94448	 27.9591	 11.2222	0.998709	 1.46122	-1.15303
    80	 6.70155	 30.2044	 13.8097	-0.587001	-4.91462	-0.363289
    81	 6.99903	 28.4688	 9.49674	0.595105	 3.02674	 1.04596
    82	 8.32615	  31.069	 11.8709	-0.539119	-1.74901	-1.45912
    83	 6.40658	 31.0453	 9.99838	-2.80903	-0.214824	 1.08731
    84	  6.7385	 27.6503	 13.1736	-0.451761	  2.2603	0.923371
    85	 18.5105	 28.3643	 33.5654	0.868634	0.269891	-1.55735
    86	 18.1779	 29.6704	 33.4821	 0.33967	0.821882	-0.677621
    87	 18.7595	 30.4429	 32.4201	-1.52465	 1.73392	-0.682913
    88	 19.2962	 29.8086	 31.2363	 0.69991	-2.37218	-0.0648708
    89	 19.3095	 28.3795	 31.2646	 1.48214	 1.21878	-0.53926
    90	 18.9418	 27.6408	  32.391	 1.93532	0.812008	0.864614
    91	 17.2266	  30.079	 33.9045	-5.32125	-0.633885	-3.59269
    92	 18.1584	 26.8652	 32.1885	0.251377	 7.40876	  -1.276
    93	 19.2283	 31.3446	 32.7584	 5.04902	-2.99246	 2.06531
    94	 20.1734	 27.9386	 30.7939	-1.42002	 1.97409	 3.32036
    95	 19.0752	 30.2906	 30.3078	 2.36914	 -1.7588	 2.68016
    96	 18.9888	 28.0038	 34.4671	-0.274027	-0.495118	-0.920094
    97	   20.19	 36.4837	 20.9625	-0.740069	-0.0558817	 0.63319
    98	  21.398	 36.9374	 21.6144	-1.42963	0.634188	0.683844
    99	 22.5418	 36.0933	 21.7137	-0.816211	-0.161983	0.0235232
   100	 22.3575	 34.7498	 21.5888	-0.224793	-0.545779	0.270677
   101	 21.2978	 34.2689	 20.7318	0.321922	0.830193	 1.11696
   102	 20.1439	 35.1187	 20.5316	0.0625458	0.878794	0.0405658
   103	  21.223	 37.5271	 22.4659	-3.75066	-3.01821	-1.87314
   104	 19.2565	 34.5335	 20.8058	 2.21055	 5.52241	 1.59549
   105	 23.5271	 36.5084	 21.4688	-2.70785	-3.08281	 2.97041
   106	  21.577	 33.8217	 19.8007	 1.79717	0.881153	-1.06103
   107	 22.5923	 34.1143	 22.4352	-2.90008	 3.30702	-2.51883
   108	 20.0472	 37.1545	 20.1199	-2.73588	-0.441687	-0.521503
   109	 22.2329	 30.6402	 3.36648	-1.54195	0.947915	-0.889998
   110	 22.9895	 31.3124	 2.33026	0.0687177	-0.737984	-2.16235
   111	  24.366	 31.0064	 2.16351	0.880288	-0.043847	-0.0921432
   112	 24.9278	 29.9329	 2.95264	0.341266	-0.516587	-0.136919
   113	 24.1902	  29.418	 4.03538	0.918822	 1.64673	-1.03294
   114	 22.8435	 29.6211	 4.09064	-1.04945	 1.74115	 0.37492
   115	 22.7855	 32.4147	 2.36917	 1.21897	 6.01057	-5.01556
   116	 22.4325	 29.4262	 5.10517	 5.58154	-1.26634	-0.552453
   117	 24.6037	 30.8269	 1.10315	 1.21256	0.0314832	 1.60866
   118	 24.7033	 29.4914	 4.95003	 7.65975	 2.04747	-2.94739
   119	 25.1371	 29.1097	 2.24151	-0.129061	 6.06986	0.400574
   120	 21.3355	 30.2574	 2.87635	-3.93762	0.220153	 2.33574
   121	 21.0705	 1.31649	 10.7392	-0.780483	-0.177816	 0.31511
   122	 20.3713	0.977431	  11.964	 1.22556	0.779057	 2.77144
   123	 19.1699	 1.73148	 12.2507	0.0147079	 0.75559	 1.80833
   124	 18.7942	 2.81108	 11.5037	-1.08131	-0.601295	  1.9932
   125	 19.3456	 2.98084	 10.2746	-1.51767	0.283508	 1.73037
   126	 20.5979	 2.37348	 9.89592	0.161493	-0.53678	  0.8278
   127	 20.9794	 0.78316	 12.8016	-2.69151	 4.55113	 6.94746
   128	 21.3796	 3.05908	 9.73969	-1.09502	 1.86537	-3.70798
   129	 18.3448	0.977091	 12.2799	0.898248	 2.03898	 4.26548
   130	 18.7542	 3.30089	 9.42693	-3.43155	-1.62498	 11.1854
   131	 18.5592	 3.70275	 12.0726	-0.173308	  1.3718	 2.31555
   132	  21.334	0.386033	 10.2026	-0.607028	0.948743	  2.3636
   133	 16.7516	 24.6039	 28.0657	-0.712265	-0.781773	0.365324
   134	 15.3796	 24.2784	  27.765	-0.695241	-0.187916	-0.959816
   135	 15.0732	 23.0413	 27.1574	0.037815	0.363852	0.504081
   136	 16.0488	 22.0196	 27.2434	-2.42716	0.670639	0.741122
   137	 17.4323	 22.4005	  27.331	-0.726338	0.370862	-0.563439
   138	 17.7622	 23.6311	 27.8343	-0.905163	 1.12002	0.572529
   139	 14.7524	  24.549	 28.5977	 1.71335	-1.31747	0.743549
   140	 18.2862	 23.5091	 28.8215	 2.75509	-0.0717236	-0.246698
   141	 14.3244	  22.946	 26.4172	 -3.5662	 3.53287	-0.857067
   142	 17.8727	 22.2506	 26.3603	0.0719859	0.297783	-1.60232
   143	 15.8274	 21.1794	 27.8614	-3.74844	-0.0835289	 1.21792
   144	 16.9377	 24.9974	 29.0831	-6.00553	-2.18695	-1.49116
   145	 16.0299	 31.2308	 19.9118	-0.0732892	0.954373	-0.0541039
   146	 15.0335	 30.3215	  19.538	 1.56783	-0.19715	-0.0286916
   147	 14.0522	 30.5846	 18.5469	0.250696	-0.261775	 1.03796
   148	 14.4323	 31.5967	 17.6235	-1.20682	0.440508	 0.38084
   149	 15.4158	 32.5896	 17.8857	-0.840492	0.294747	0.0945394
   150	 16.2125	 32.3406	  19.015	-0.784923	-1.66171	0.364988
   151	 15.2071	 29.2333	  19.738	-3.67918	  2.7305	-0.802179
   152	 16.4388	 33.2814	 19.5223	 2.37304	-1.34256	 2.42707
   153	 12.9778	 30.5647	 18.8605	-1.27931	 4.43245	 3.82475
   154	 15.0917	  33.594	 17.6416	-0.597325	-0.147509	 3.43325
   155	 14.3626	 31.3318	 16.5572	  1.0023	-1.50659	0.0803728
   156	 17.0193	  30.713	  19.936	-0.402275	   1.296	0.338153
   157	0.955284	 27.1166	 8.76485	-0.94605	-0.473956	-0.101164
   158	 39.5561	 27.3806	 8.60013	0.140188	-0.472754	-0.803297
   159	  38.706	 26.8082	 9.53562	-0.743281	-0.402895	 1.54425
   160	  39.154	 26.1561	 10.7475	-1.10911	0.0519599	-0.498209
   161	0.574424	 25.9052	 10.8604	0.563673	-0.303714	0.349655
   162	 1.48513	 26.5816	 9.98829	0.548841	-1.07677	-0.686679
   163	 39.4381	 28.5007	 8.68698	 1.28155	 4.16372	0.422361
   164	 2.14027	  27.229	 10.5206	-1.07564	 4.86068	-0.303783
   165	  37.938	 26.1241	 9.11032	-4.49147	-1.63903	-0.99928
   166	0.704631	 24.7908	 10.9317	0.100841	 1.35222	-0.690071
   167	 38.6747	 26.6689	 11.5853	0.569856	0.697669	 6.38799
   168	 1.47331	 26.6683	 7.95636	-0.827085	 0.13025	-0.867614
   169	 13.7756	 34.3221	 32.7932	0.229751	0.737885	-0.451615
   170	 14.6557	 35.1244	 32.1002	-1.10602	0.513113	-0.346787
   171	 14.2888	 35.8279	 30.9523	-1.33582	-0.855125	0.0224285
   172	 12.9531	  35.748	 30.5015	-0.624553	 -1.0082	0.882741
   173	  11.959	  35.154	 31.3171	-1.97994	-0.605422	 1.74613
   174	 12.4155	 34.3128	 32.4085	-1.05187	-0.851142	-0.507868
   175	 15.6644	 34.6681	 31.9456	-4.43172	 -1.2223	 1.81432
   176	 11.7321	 34.1177	 33.2176	-6.93317	-0.118652	 6.28796
   177	 14.9318	  35.478	 30.0947	-2.57779	 1.02265	-1.72811
   178	 11.1098	  34.736	 30.7411	-2.18007	 1.26146	0.788873
   179	 12.6555	 36.7704	 30.1787	-2.87474	-3.65143	-2.37706
   180	 13.9383	 34.1588	 33.8961	0.634552	-0.827356	0.491872
   181	 24.8461	 6.63072	 33.3474	0.455541	0.324316	-0.283668
   182	 23.9456	 7.64943	 32.8529	0.981332	 1.53775	 2.04072
   183	 23.9297	 8.93886	 33.4262	-1.19597	-0.144676	 1.72294
   184	 24.7413	 9.16378	 34.6007	-1.24186	0.567852	-0.00587778
   185	 25.6672	 8.20011	 35.0235	-1.05912	-0.552539	0.302458
   186	 25.3457	 6.86253	 34.6906	-0.157801	0.500744	 1.51307
   187	 22.9244	  7.2138	 33.0343	 1.04966	-1.61402	 -1.9179
   188	 24.7192	  6.4289	 35.4394	-0.145337	-0.977991	-0.238482
   189	 24.2657	 9.73837	 32.7204	-1.23052	  3.5424	 1.73725
   190	 26.7078	 8.52014	 34.7498	-3.05301	-0.979452	-0.0430372
   191	 24.2513	 9.64344	 35.4164	 3.12362	 1.23912	 2.11804
   192	 25.6647	 6.50007	 32.6114	 1.04301	-0.0612414	  4.7897
   193	 29.8416	 30.6559	 37.7821	0.745872	-0.671087	-1.52825
   194	 28.8319	 31.3354	 38.5507	0.344479	 2.07419	-0.211942
   195	 29.0432	 32.7272	 38.9067	  1.2323	0.452082	-0.701866
   196	 30.2048	 33.4271	 38.4412	0.812255	 2.20511	 0.87799
   197	 31.2954	  32.619	  38.079	 1.55435	-0.715686	-0.154289
   198	 31.1164	 31.2356	  37.709	-0.576086	 1.09974	-0.0876872
   199	 28.6117	 30.7103	 39.4551	 4.46315	-0.160958	  1.8405
   200	 31.6886	 30.9267	 36.8062	0.0389659	 1.37007	-1.73647
   201	 28.8528	  32.941	 39.9614	0.0472925	 4.56884	0.410352
   202	 32.1533	 32.7714	 38.7722	 2.82867	 2.55273	-4.64207
   203	 30.0036	 34.2373	 37.7959	-0.31799	 2.44825	 1.79562
   204	  29.412	 30.2909	 36.8753	 -5.0421	 0.95623	0.790899
   205	 27.0065	 11.0594	0.241543	-0.10732	 1.28504	-1.33982
   206	    26.8	 11.8277	 39.1535	 1.47036	0.906687	0.304251
   207	 25.8703	 11.5083	 38.0954	 1.13825	0.204053	 0.64201
   208	 25.2182	 10.2315	 38.2275	0.302125	-0.991723	-0.203163
   209	  25.618	  9.2697	 39.1701	0.648146	0.0809085	0.756086
   210	 26.2774	 9.81902	0.322129	0.374928	 0.16198	 0.44325
   211	 27.7067	 12.1858	 38.6344	 2.22519	 2.29412	-0.102629
   212	 25.6811	 9.72779	 1.27481	-1.44684	 1.33482	0.433336
   213	 25.0286	 12.2555	 38.0045	 1.65957	-0.28537	 2.42128
   214	 26.1119	  8.3808	 38.8522	-2.26287	-1.77382	-0.341763
   215	 24.1585	 10.3383	 38.0543	0.435826	-1.77917	 1.25057
   216	 28.0453	 10.8462	0.631114	 5.93878	-3.42178	0.273495
   217	 18.8488	 4.70127	 2.19465	0.210203	0.518659	0.839578
   218	 17.4586	 4.66654	 1.81645	-0.0434962	-0.443036	-0.351691
   219	 16.9201	 5.68023	0.934437	-0.251887	0.418765	-0.377069
   220	 17.6966	 6.78078	0.630075	-0.108346	-0.167999	0.274505
   221	 19.0878	 6.76849	0.899557	-0.45722	-1.05011	0.688238
   222	 19.6339	 5.74676	 1.70034	-1.19652	 1.19522	0.00242368
   223	 16.8446	 4.49334	  2.7467	 3.09263	 1.25036	 4.04782
   224	 20.4527	  5.2849	 1.10018	 4.55152	 4.25169	0.683613
   225	 16.3856	 5.27086	0.0863497	 2.52543	 1.79057	-0.350541
   226	 19.4241	 7.77839	 1.23991	 3.39853	0.423138	-3.21189
   227	 17.1842	 7.72283	0.481982	-2.00739	-0.538572	 1.62002
   228	 19.3496	 3.70459	 2.18888	 2.24386	-0.0380084	-0.189121
   229	 3.37513	 24.1114	 19.7896	-0.228158	-1.09756	0.353603
   230	 3.97551	 24.4283	  18.521	0.0850203	-0.140537	-1.08178
   231	 3.86013	 23.4963	 17.4966	-0.272409	0.647494	-0.357187
   232	  3.5601	 22.1059	 17.7622	0.427513	0.0679791	0.0489488
   233	 3.01786	 21.8369	 19.0373	-0.660201	-1.15653	-0.391851
   234	 3.12644	 22.7546	 20.1447	0.107852	 1.68599	-1.35571
   235	 4.96749	 24.9314	 18.6647	0.633925	-3.79428	-0.348895
   236	 2.41792	 22.6657	 20.9197	-1.04269	-2.13108	0.566211
   237	 3.65022	 23.7914	 16.4702	 6.26184	-0.40191	0.818698
   238	 3.08818	 20.7755	 19.2381	0.678021	0.479204	-0.492525
   239	 4.45937	 21.5192	 17.5186	0.691964	    1.35	0.303364
   240	 2.74089	 24.8676	 20.2491	-4.74178	-0.208665	 4.20255
   241	0.998364	 14.9819	 29.9734	0.0973247	0.949418	-0.349969
   242	 2.29888	 14.5575	 29.7847	 1.97235	-1.31034	-0.456001
   243	 3.30844	 15.5139	 29.4316	 1.28509	-0.104227	0.268796
   244	 3.12425	 16.8628	  29.874	0.609602	0.672132	0.021852
   245	 1.82072	 17.3123	 30.2716	-0.116055	 0.53627	0.149539
   246	0.756142	 16.3423	 30.2948	0.722504	0.515441	-0.99399
   247	 2.69737	 13.9125	 30.5423	-3.68707	 5.11169	-3.50967
   248	0.312546	 16.3639	 31.2943	 0.66809	0.449621	-0.619238
   249	 3.71478	 15.3914	 28.4237	-0.182314	 6.28032	 2.20005
   250	 1.52083	 18.3035	   30.01	-0.953655	 1.28255	-1.03243
   251	 3.94548	 17.1254	 30.5027	 1.93915	-3.94196	  1.9472
   252	0.400018	 14.7562	 29.0663	-0.026824	 -2.6414	 1.30819
   253	 22.0799	 16.0795	 13.3844	0.694167	-0.491128	 1.09885
   254	 22.4344	 17.4635	 13.1498	-0.136657	-0.208887	-0.802944
   255	  23.731	 17.7834	 12.6004	-0.00802142	0.791442	-1.03027
   256	 24.6634	 16.7275	 12.4824	-0.967989	-0.0626612	-0.588771
   257	 24.2506	 15.3766	 12.6188	0.867003	 0.53857	0.123969
   258	 22.9645	 15.0589	  13.054	-1.26306	0.768849	0.340488
   259	   21.59	 18.0064	 12.7279	0.0194204	-1.60165	-1.28728
   260	 22.4598	 14.3042	 12.4036	-1.03195	 0.78307	0.359361
   261	 23.6907	  18.395	 11.6746	-1.20067	-0.710268	-4.23876
   262	 25.0972	 14.7958	 12.9112	-3.76854	-1.44739	0.645263
   263	 25.6435	 16.9536	 12.8365	0.327062	-4.58973	-2.44886
   264	 21.7687	  15.989	 14.4324	-2.20849	-0.313856	 -2.6691
   265	 9.66591	 12.6154	 23.6125	0.178934	-0.175701	0.0706266
   266	 10.8514	 11.9759	 23.1019	0.590288	-0.172505	 1.17958
   267	 11.6994	  12.671	 22.3031	0.485182	 -1.1231	-0.376974
   268	 11.5137	 14.0614	 22.0762	-1.23479	-0.632886	 0.17135
   269	 10.3641	 14.7568	 22.6077	-1.22752	-0.246648	0.522035
   270	 9.50228	 14.0223	 23.4715	-0.00486546	 1.18344	0.486347
   271	 11.2218	 11.1902	 23.7794	-0.336122	-1.42233	-3.18476
   272	 9.15449	 14.5377	 24.3717	-1.68103	 1.43137	 1.39792
   273	 11.9163	 12.1442	 21.3476	-2.46813	 3.01239	 2.37924
   274	 9.81035	 15.2252	 21.8025	 3.10603	 4.68085	-3.35183
   275	  12.368	 14.6232	 22.3269	-6.06077	0.769543	 2.91527
   276	 8.75836	 12.0728	 23.4286	 5.51317	-4.02603	0.0515964
   277	 4.18853	 37.7395	  19.246	0.272796	0.538409	-0.640113
   278	  3.4501	 37.7229	 20.4628	-1.06502	-0.39921	-0.14649
   279	 3.64735	 36.6343	 21.2878	0.114356	 0.26199	0.875823
   280	 4.57092	 35.5922	 21.0259	 0.25495	 1.18621	-0.725544
   281	  5.2899	 35.7103	 19.7835	0.781057	-1.87436	0.943025
   282	 5.15151	 36.8174	 18.9263	 1.83768	-0.821684	-0.312473
   283	 3.32135	 38.7288	 20.8791	 1.34534	 3.80625	-4.17245
   284	 5.13844	 36.4305	 17.8972	-6.39909	 3.10887	-3.92739
   285	 2.66138	 36.1373	 21.4569	-1.69034	-1.81064	 0.41933
   286	  5.5575	 34.7582	 19.3992	-0.533148	-1.78674	-0.84775
   287	 5.33238	 35.6281	  21.859	-0.41292	0.0399608	 1.21702
   288	 4.47203	 38.7734	 18.8934	0.409662	 3.05003	 -3.6196
   289	 22.8605	 4.25417	 30.2669	-1.82725	-0.00779963	-0.868158
   290	 23.3173	 3.83955	 28.9805	0.213464	-0.340813	 0.12762
   291	 22.6183	 4.33661	  27.836	-1.03196	0.941177	0.381159
   292	 21.3644	 4.84087	 27.9105	-0.735979	-0.480842	0.242844
   293	 20.9654	 5.38748	 29.1819	 0.21891	-0.227109	0.366801
   294	 21.6571	 5.01008	 30.3965	0.0637387	-0.795027	0.163297
   295	  23.542	 2.74287	 28.9916	 1.45719	-2.11894	 6.08902
   296	 21.0052	 4.61937	 31.2067	-0.93975	-0.524198	-0.0373157
   297	 23.1791	  4.3684	 26.9006	-2.81099	-0.716889	-0.609851
   298	 20.8047	 6.49353	 29.2027	-0.857033	-1.08736	-1.38913
   299	 20.5317	  4.3674	 27.3955	-0.76569	 1.13414	-0.222468
   300	 23.6716	 4.85855	 30.7391	-0.942874	0.701657	 2.68929
   301	  20.798	 35.6054	 6.44612	0.135664	0.190669	0.304391
   302	 20.7043	 36.5334	 7.42578	0.310021	0.395192	-1.62624
   303	  20.504	 37.9196	 7.06272	-0.945125	0.100309	-0.141096
   304	 20.1263	 38.2348	 5.70672	-0.92013	-1.31419	-0.865721
   305	 20.1198	 37.2056	  4.7323	  1.1941	-0.765478	-0.713958
   306	 20.7794	 35.9745	 5.04931	-0.108477	 1.24712	0.563855
   307	 19.9612	 36.3235	 8.25122	-0.982711	-0.490209	-0.129705
   308	 21.6059	  35.785	 4.43149	-0.852901	0.298033	-3.19986
   309	 21.2559	 38.5688	 7.44265	-2.72021	-1.27504	  7.3494
   310	 19.2366	 37.1545	 4.14168	-1.15095	-0.919592	-1.31597
   311	   19.38	 39.0329	 5.62593	-3.82058	-2.52406	 1.27102
   312	 21.4595	 34.7535	 6.71993	-0.63871	-0.222792	-3.01419
   313	 30.5223	   17.55	 24.5262	-0.123872	 -1.3798	0.888094
   314	  29.396	 17.4135	 23.6572	-0.534974	0.462434	-1.54779
   315	 29.5729	 17.4664	 22.2169	 3.19257	-1.48191	-0.722814
   316	  30.868	 16.9678	 21.7948	-0.0176299	-0.566301	-0.648991
   317	 32.0033	 17.1108	  22.651	-1.55566	0.686152	0.600252
   318	 31.8207	 17.6159	 23.9503	-0.0102461	0.0859287	-0.558851
   319	 28.4013	 17.6012	 24.0325	 1.23354	-3.35454	-3.31391
   320	 32.2982	 18.5189	 24.1981	 2.55756	 3.07665	-2.72542
   321	 29.5751	 18.5334	 21.8423	 1.08923	-3.03528	0.853975
   322	 32.9636	 16.8463	  22.302	 2.94756	 5.03807	 -0.7809
   323	  30.668	  15.986	  21.375	-1.04167	0.063733	 5.29578
   324	 30.4818	 17.0126	  25.479	-5.02214	 1.16618	-5.79602
   325	 6.69598	 3.01396	0.572597	 1.15399	0.095529	-0.154362
   326	 7.05643	 3.72264	 39.3938	-0.167857	-0.14554	-1.00129
   327	 8.01763	 3.30242	 38.4915	0.901104	0.575987	-1.86954
   328	 8.65109	 2.08051	 38.7528	0.188923	0.529502	-1.15627
   329	 8.26691	 1.23591	 39.8574	0.161107	-0.667645	-0.343999
   330	 7.34967	 1.76475	0.811593	0.381136	-0.261718	0.916176
   331	 6.11421	 4.02868	  38.865	-2.84979	-1.22828	-1.13866
   332	 6.70206	0.955231	 1.13486	-0.074213	-0.975051	-1.82511
   333	 8.63782	  4.0628	 38.0624	-0.39137	 1.01597	-0.0741346
   334	 9.19756	 1.03238	0.394331	-0.232165	-0.228573	0.064739
   335	 8.71788	 1.43571	 37.8319	  2.8601	-4.30087	-0.787904
   336	 6.56695	 3.62594	  1.4273	0.629089	 2.23587	-0.783248
   337	 6.61754	  8.0242	 3.74374	 0.43264	0.906702	 1.98184
   338	 6.24596	 9.09833	 4.61952	-1.18926	0.486338	-0.0260047
   339	 7.20021	 9.77966	 5.42016	-0.88399	-1.41734	 1.52911
   340	 8.55054	 9.27176	 5.46848	-1.06576	-1.27451	-1.09363
   341	 8.88192	 8.09607	 4.68839	0.874017	0.832505	-1.18435
   342	 7.91462	 7.49088	 3.81567	0.987937	-0.808067	-0.362985
   343	 5.41439	 8.81075	 5.21338	-0.943368	0.377547	-0.95233
   344	 8.37815	 7.34935	 2.82862	0.358285	 2.00972	 2.44692
   345	 7.21202	   10.82	 5.16745	-6.45727	0.760651	0.644469
   346	 9.25458	 7.33685	 5.33127	-2.89008	-0.970603	-1.84685
   347	 9.35337	 9.94812	 5.62187	-0.414009	-0.537527	0.676534
   348	 6.30463	 8.13347	  2.7296	-3.73427	0.863826	0.187543
   349	 35.0902	 22.6156	 25.0285	 1.69414	0.0559838	 -1.1197
   350	 35.9012	 22.1503	 26.1189	0.219372	0.359656	-0.361847
   351	   37.22	 22.5808	 26.2596	-0.836955	-0.438489	-0.0305805
   352	 37.8005	 23.3881	 25.2088	0.0760501	-0.0917907	0.382436
   353	 36.9304	 24.1192	 24.3568	0.652652	-0.848332	0.0873091
   354	 35.7159	  23.487	 24.0502	0.415739	  0.9363	0.00581036
   355	 35.3892	 22.1004	  27.104	0.269273	0.644717	0.304092
   356	 35.3965	 23.2927	 23.0684	0.294645	-3.79832	 2.21176
   357	 37.5419	 22.8134	 27.2552	-0.61312	0.0647663	0.906227
   358	 36.8658	 25.1679	 24.4571	 3.53823	 -3.2368	-0.494142
   359	 38.6092	 22.8668	 24.7818	0.175644	-0.735781	 2.83148
   360	 34.4522	 21.9303	 24.5221	 1.45675	-6.17818	0.331282
   361	  13.751	 14.7545	 38.8269	-1.51622	-0.414739	   0.988
   362	 13.9617	  14.743	0.179291	-0.156395	-0.41315	-1.47241
   363	 13.4424	 13.6748	0.945401	 0.55004	-0.866778	-0.205526
   364	 13.6083	 12.4015	0.346148	 1.19259	-1.24328	 1.67402
   365	 13.5448	 12.2631	 38.9065	0.273751	0.250519	-0.623432
   366	  13.776	 13.4714	 38.1595	-0.280163	-0.279129	-0.220635
   367	 14.8595	 15.2055	0.591306	-0.338413	-3.41319	 1.39436
   368	 14.5323	 13.2818	 37.4352	-0.822755	 2.71165	-0.821388
   369	 12.3983	 13.8853	 1.30138	 1.69982	-2.74836	-1.09189
   370	 12.7075	  11.691	 38.5276	-1.93856	 1.11632	-2.46554
   371	 14.6387	  12.048	0.601607	 1.86887	 5.30249	 1.17561
   372	 13.0784	 15.4758	 38.3551	-0.251127	-1.66647	-2.71598
   373	 39.8874	 33.7486	 2.38909	-0.628815	-0.564003	 -1.1124
   374	  39.009	 33.0198	 1.57397	0.610316	0.501451	 1.78007
   375	 38.0117	 33.6277	0.781823	-0.631209	0.205919	 1.07168
   376	 37.8929	 35.0623	 0.89618	0.476672	0.922899	0.215401
   377	 38.8247	 35.8438	 1.64519	 0.26788	0.222432	 1.35373
   378	 39.9053	 35.1651	 2.30699	-0.481429	0.534805	-0.195667
   379	 39.4458	 32.0728	  1.1517	-2.25645	 1.72666	-0.230539
   380	0.915609	  35.624	 2.21465	0.193925	-1.06495	 0.59077
   381	 37.0005	 33.1432	  0.9193	-2.21471	-0.453923	 -5.3576
   382	 38.2351	 36.3926	 2.40693	-4.99547	-0.254374	-0.917483
   383	 37.9014	 35.4469	 39.8591	 2.43982	-0.676172	-0.574935
   384	0.103606	 33.3278	 3.36088	 1.34526	 1.64153	 1.67371
   385	 27.0963	 32.6967	 14.5245	-1.55525	0.298723	 2.06531
   386	 26.0896	  32.744	 15.5414	-1.49346	0.619089	0.0976669
   387	 26.0267	 31.7709	 16.5846	-2.31083	0.321243	-0.220073
   388	 27.1929	 30.9365	 16.7007	0.919716	0.359476	-0.591105
   389	 28.2694	 30.9858	 15.8344	0.538732	 1.21096	0.156863
   390	 28.3358	 32.1543	 14.9854	 1.75919	-0.315276	0.649983
   391	 26.0149	 33.7402	  15.964	 1.79223	0.350036	-1.41754
   392	 28.9138	 32.9755	 15.3669	-2.58291	-0.581734	-0.359597
   393	    25.1	 31.1608	 16.6276	-1.15509	 3.12503	 -1.6117
   394	 28.5076	 30.1242	 15.2049	-2.16661	 1.56243	 1.11975
   395	 27.5152	 30.8174	 17.7174	0.472077	-0.951576	0.116305
   396	 26.8326	 32.6988	 13.5053	-3.99474	-1.87933	-3.34348
   397	 10.0155	 38.4405	 26.6522	0.696637	-2.01689	0.113829
   398	 11.0072	 38.2184	 27.6287	-1.38089	0.777899	 -1.1031
   399	 12.3273	 38.7842	 27.4499	-0.509581	-0.302391	 0.14963
   400	 12.5165	 39.7557	 26.4498	-0.0774432	0.571947	 0.80789
   401	 11.4136	0.133211	 25.5949	-0.093436	0.495391	-1.65615
   402	 10.2853	 39.2293	 25.5156	-0.76593	-0.61532	-0.188482
   403	 10.6628	  38.236	 28.6999	-0.793422	-0.868686	 2.05795
   404	 10.3478	 38.6869	 24.5868	  1.1705	 1.21783	 1.40539
   405	 13.1774	 38.1168	 27.5376	 -1.9518	-1.29853	0.900503
   406	 11.1925	  1.1719	 25.6852	-1.25099	0.628582	-1.83083
   407	 13.4906	 39.8548	 26.0552	 2.75998	 3.74218	-3.32628
   408	 9.02142	 38.5202	 27.0369	-4.43263	-0.401046	 2.10896
   409	 27.7201	 38.6057	 10.4003	0.0547512	 0.56791	-1.69071
   410	 28.7481	 38.8318	 9.44549	-0.588272	-0.0890845	-0.427942
   411	 29.8343	 39.6004	 9.68375	-0.294993	  1.4347	-0.21611
   412	 29.9525	0.289455	 10.9122	-1.32854	-0.517112	0.725506
   413	 28.8884	0.241991	 11.8885	-0.404692	-0.0699787	 1.36483
   414	 27.7221	 39.4824	 11.5584	0.693167	 1.46526	-2.12639
   415	 28.2323	 39.0856	 8.47624	 3.22889	-0.731646	-5.33284
   416	 27.4551	 38.8505	 12.4501	-4.83801	-2.04637	-0.896854
   417	 30.7793	 39.1877	 9.40864	 5.52198	-4.63937	 3.89121
   418	 28.6568	 1.17897	 12.3628	-2.29015	 1.43336	-6.04148
   419	 30.1926	 1.38541	 10.7906	0.0322059	 1.45263	 3.40754
   420	 27.7939	 37.5836	 10.8567	-0.332723	 3.41053	-0.55309
   421	 11.4729	 33.7887	 9.44757	0.113415	-1.71514	0.170617
   422	 11.8966	 32.4469	 9.50754	 -2.1191	 0.94343	-0.379125
   423	 11.5055	 31.5894	 10.5938	-2.17709	-0.884802	0.373703
   424	 11.4064	 32.3083	 11.8241	-0.744989	-0.744205	-0.0208256
   425	 11.2268	 33.6503	 11.9463	 1.23121	0.313557	-1.67023
   426	 11.2893	 34.4052	 10.7431	0.0370188	-0.159297	0.119818
   427	 12.8387	 32.1996	 8.98402	-3.15847	-1.21473	-1.27468
   428	 11.9944	 35.2636	 10.7685	 -1.3031	-1.32234	 1.53109
   429	 10.6786	 30.9049	 10.3756	-1.35628	 1.25363	-4.19146
   430	 10.2919	 33.9133	 12.4475	-1.12738	 2.06444	-0.144179
   431	 12.0575	 31.7411	 12.5337	-0.296384	0.131634	-0.46563
   432	 10.5029	 33.9701	 8.93141	-1.20945	-0.707134	-0.47327
   433	 31.6032	  28.563	 12.1786	-0.0216311	0.376149	-0.320242
   434	 32.4172	 28.2476	 11.0315	 -0.9153	0.0454401	0.502288
   435	 31.8221	 27.7577	 9.86848	-0.441715	0.361097	0.807594
   436	 30.4202	 27.9392	 9.71708	-1.27682	0.687866	 1.06615
   437	 29.5544	   28.24	  10.838	-1.03089	0.378318	-0.873905
   438	 30.2018	 28.4148	 12.0731	-0.894768	0.520866	-0.391555
   439	 32.9063	  29.219	  10.769	0.023869	 2.21703	   1.188
   440	 29.7014	  29.181	 12.6246	-0.931962	0.410629	 2.20935
   441	 32.1672	 26.7705	 9.62441	0.399822	 2.87416	 1.12653
   442	 28.6638	 27.6046	 10.7735	 1.51249	-0.178326	 2.79887
   443	 30.1707	 28.6978	 8.91896	0.275357	-2.88295	 1.46621
   444	 32.0202	 28.0245	 13.0715	-1.79493	-0.247818	-0.325581
   445	 18.9672	  22.148	 22.7717	 1.05757	-0.833579	0.880597
   446	 18.8251	 23.4392	 23.3004	 1.27288	-1.06111	0.508916
   447	 17.5278	 24.0656	 23.3623	0.200445	-0.492537	 1.50945
   448	 16.3858	 23.2809	  23.158	0.940017	 1.09722	0.969859
   449	 16.5034	 21.8524	 23.0119	-1.96574	0.130186	0.704579
   450	 17.7862	 21.3424	 22.6161	-0.428739	0.673893	 1.15216
   451	 19.4677	 23.6154	 24.1772	-4.17486	 2.53966	0.372248
   452	 17.8215	 20.8679	 21.6226	0.449939	-1.10493	 1.02436
   453	 17.4727	 24.5978	 24.3389	 1.45641	 2.06894	 1.96435
   454	 15.8444	 21.2561	 23.5998	-0.40035	0.0246062	 3.48167
   455	 15.6826	  23.659	 22.3923	-5.22169	-0.460818	-3.91489
   456	 19.5879	 22.2043	  21.848	0.901293	-6.04101	0.518791
   457	 16.9475	 16.0135	 13.5451	0.737356	-0.349469	0.915964
   458	 18.1625	 16.6543	 13.1569	0.663389	0.918243	0.391847
   459	 18.5722	 16.7242	  11.785	 2.23566	-0.72585	-0.183075
   460	 17.5844	 16.4622	 10.8206	0.194188	-1.62528	 1.10363
   461	 16.2133	 16.1455	 11.1743	-0.549621	-0.255917	0.515108
   462	 15.9477	 15.9826	 12.5855	0.00844443	-0.813559	0.631683
   463	 18.5304	 17.4622	 13.7957	 3.21501	 1.93467	-4.56627
   464	 14.9519	 16.3638	 12.9338	0.111396	-1.88237	-1.77524
   465	 19.5592	 16.3171	 11.6204	-4.80085	  4.5073	-3.78271
   466	 15.9795	 15.2054	 10.6728	 3.78482	-0.548811	-0.644447
   467	 17.5595	 17.2718	 10.0687	 0.60449	0.290055	-3.31976
   468	 17.1903	 15.1771	 14.1747	  2.3309	-1.12902	-0.250072
   469	 21.4372	 18.3239	  38.821	0.0398493	-0.189302	 1.02744
   470	 21.6086	 19.4964	 38.0915	-0.118685	0.565759	-0.100488
   471	 21.6259	 20.7439	 38.6718	0.586415	0.607506	-0.109546
   472	 21.2999	 20.8912	0.0451921	-0.539305	 1.48347	0.994639
   473	 20.9454	  19.733	0.811352	-0.52695	0.676664	 1.98098
   474	 21.2679	 18.4467	0.250318	-0.483444	-0.0251184	-1.11087
   475	 21.2783	 19.4755	 37.0864	-0.917524	 1.63381	-2.94349
   476	 22.0972	 17.8983	 0.75013	0.919443	 3.53648	 0.90974
   477	 22.5069	 21.3924	 38.3931	0.701355	-0.396742	 1.72125
   478	 19.9157	 19.8007	 1.13403	 4.44335	  -2.894	-3.77432
   479	  20.639	 21.6909	0.215938	-1.16247	-0.687655	0.859397
   480	 20.7471	  17.531	 38.4539	-1.77017	-1.33101	 1.28772
   481	 33.5666	  33.799	 13.4784	0.498818	-0.967725	 1.67865
   482	 33.3513	 35.1045	 12.9414	0.383246	0.316505	0.206942