ITEM: TIMESTEP
0.292687
ITEM: NUMBER OF ATOMS
1200
ITEM: BOX BOUNDS
0	40
0	40
0	40
ITEM: ATOMS index type x y z
     1	  9.4879	 20.4581	 30.0834	-2.19066	0.719329	-2.48809
     2	 10.1444	 21.0047	 31.1787	 1.94156	-5.25723	0.131273
     3	 10.7657	 20.0446	 31.9992	  1.6856	 2.07013	 3.59911
     4	  11.232	 18.7701	 31.5189	-0.646643	-1.19633	-0.806567
     5	 10.8027	 18.3767	  30.267	 1.42079	0.983596	 2.37745
     6	 10.0517	 19.3217	 29.5183	-0.0259417	 1.50986	 1.48723
     7	 10.7531	 21.9209	 30.9368	-1.09578	 5.64356	  1.3089
     8	 10.5938	 19.5737	 28.6048	  1.5063	 1.90628	0.326216
     9	 10.3773	 20.0339	 33.0018	-3.85058	-8.80772	 6.35874
    10	  11.592	 17.8529	 29.6511	 6.23553	 3.61641	0.953051
    11	 11.3269	 17.9859	 32.2649	-0.163657	-1.48437	-1.42293
    12	 8.60113	 20.8842	 29.6546	-7.34584	-5.28663	 7.83234
    13	      39	 33.3145	 32.9107	-1.06602	-0.055622	-0.529278
    14	 39.3647	 34.3339	  33.778	 1.19906	-0.317537	 1.91518
    15	  38.639	 35.5226	 33.7156	0.0567807	0.0764984	 1.09518
    16	 37.5685	 35.7435	  32.818	-1.22322	0.609609	0.323752
    17	 37.2341	 34.6735	 31.9921	-4.49888	 1.28994	-1.71337
    18	 37.9612	 33.4169	 31.9843	  2.1782	 2.14412	-0.636601
    19	0.460301	 34.5721	 33.7805	-5.41971	 8.39919	-6.06417
    20	  38.166	 33.0674	 30.9425	 6.21538	-4.97302	-1.59584
    21	 38.4357	 36.1133	 34.6177	0.192793	 8.41943	 9.53699
    22	 36.1617	 34.5546	 31.7818	0.597279	-3.60952	-15.3145
    23	 36.6997	 36.1539	 33.2809	-2.95178	0.363971	 3.83786
    24	 39.1665	 32.2822	 33.3038	-5.32755	 3.30752	-0.849105
    25	 39.1705	  23.248	 37.1622	-0.236691	0.783252	0.787338
    26	 39.2631	 23.9122	 35.9123	0.856117	-1.01446	-3.12675
    27	 39.4824	 25.3109	 35.7591	0.406566	0.145575	-0.712275
    28	 39.4782	 26.0274	 36.9865	-0.20034	-2.42175	-0.524842
    29	 39.3723	 25.4574	 38.2551	-1.59375	0.871619	0.847058
    30	 39.6039	 24.0538	 38.2855	-1.63606	0.385791	-0.832512
    31	 39.6062	 23.3326	 35.0465	 1.45396	-4.49506	 3.84205
    32	0.418081	 23.6412	 38.8337	 3.66159	 1.80269	-4.14475
    33	0.201189	 25.6425	 35.0239	-0.434121	-0.292985	 2.44528
    34	 38.3874	 25.7978	 38.6939	 6.71489	 5.55668	-9.30767
    35	 38.9581	 26.9982	 36.8804	 -3.8103	 8.63653	 2.52996
    36	 38.2509	 22.7419	 37.3615	-6.77557	 10.2291	-5.80003
    37	 23.0219	 37.4328	 37.5946	-1.91714	-0.222678	0.235892
    38	 24.0231	 38.2795	 36.9697	 1.34111	 3.14259	-0.572646
    39	 23.7567	 38.9013	 35.7186	 4.44439	 1.41611	-1.36793
    40	 22.3654	 39.0254	 35.3535	0.417767	 1.06148	 -1.8027
    41	 21.3538	 38.3805	 36.0185	 1.21905	-0.148681	 1.12916
    42	 21.7761	 37.4763	 36.9978	-0.723765	 1.71072	-1.20028
    43	 25.0172	 37.9166	 37.1933	-2.33995	-1.05497	-1.24525
    44	 20.9465	 37.1713	 37.6657	-6.36593	 6.21994	 7.55497
    45	 24.4207	 39.7189	 35.4046	 8.55516	 2.64851	 3.45816
    46	 20.5605	 37.8802	 35.4143	  13.842	 4.18579	 5.39312
    47	 22.1226	 39.9792	 34.8729	 1.64839	 4.40006	-0.253831
    48	 23.5226	 36.4478	 37.7564	 -2.2102	 10.8153	 3.63866
    49	 35.4483	 22.9157	   34.91	-0.17083	 1.45253	 0.98628
    50	 34.7642	 21.7983	 34.3385	-0.82235	-1.63923	0.878943
    51	 33.3491	 21.8959	 34.1796	 1.02734	 0.24024	0.527355
    52	 32.8179	  23.204	 33.9532	-2.21181	 1.00665	-1.59597
    53	 33.4499	 24.2945	 34.6327	 -1.9218	  1.3997	0.236704
    54	  34.741	 24.1203	 35.1788	 1.04451	0.401478	 1.17998
    55	 34.9911	 20.8614	 34.9086	-9.76826	 4.96357	0.0562014
    56	 34.7544	 24.5381	 36.1867	 1.37907	-4.24553	-0.650613
    57	 33.0153	 21.2279	 33.3906	-1.01482	-3.51515	-8.53527
    58	 32.7044	 24.7871	 35.3176	 4.62482	 6.94878	-0.617646
    59	 32.5801	 23.3925	 32.9251	-5.20147	 6.84569	-0.145066
    60	 35.9898	 22.5462	 35.8279	-0.652801	 -1.9438	 1.15846
    61	 28.8807	 28.5696	 21.2856	-1.91342	 1.42539	 1.77318
    62	 27.7702	 29.2736	 21.6568	-1.24383	 2.07636	0.367297
    63	  26.494	 29.1282	 21.1126	-0.613335	-0.899314	-1.13651
    64	 26.2403	 27.9111	 20.4229	 2.04872	 -2.2204	 3.53476
    65	 27.3838	  27.255	 19.8275	 1.99636	-1.73481	 1.13379
    66	 28.6363	 27.4065	 20.5238	-0.870724	-0.228898	 2.90341
    67	 27.7604	 29.6714	 22.7147	 -4.6696	-3.09221	 5.46539
    68	 28.9936	 26.4668	  20.903	 -4.1994	-6.99686	 10.0849
    69	 25.9895	 29.9944	 20.7619	-11.2398	-1.47945	 3.31381
    70	  27.425	 27.3394	 18.7756	 4.06911	 18.7285	-0.0927754
    71	 25.4906	 27.2949	 20.8504	 2.88175	 1.57997	-9.20857
    72	 29.7691	 29.0842	 20.8564	-6.96711	 4.90296	 1.79572
    73	 5.80102	 26.6613	 12.5612	0.338318	0.707361	 1.13098
    74	 6.58063	 25.8465	 11.6734	-3.00934	 1.62843	-2.43125
    75	 6.22356	 26.0721	 10.2995	 2.21115	 2.04911	0.822679
    76	 5.80623	 27.3966	   9.971	 2.15665	-1.80514	-0.268365
    77	 5.05182	 28.2098	 10.8824	0.642684	0.608316	0.404078
    78	 5.57237	 28.0165	 12.2138	-4.00084	-0.899036	 1.00417
    79	 6.46114	 24.7385	 11.8494	 -3.3777	 4.02577	-1.36514
    80	  4.9471	 28.4972	 12.9156	 4.73351	 5.98326	-1.75337
    81	 7.03061	 25.7532	 9.66036	  1.2269	-6.59968	-0.289993
    82	 4.02514	 27.7623	 10.8547	 6.35372	0.153306	 1.46333
    83	  6.4324	 28.0298	 9.36763	 1.37747	-1.72353	 5.15658
    84	 4.95697	 26.1435	 12.9915	 1.92299	-3.76422	0.668946
    85	 16.8256	  27.743	 32.7613	-2.80791	-0.292933	 -2.4842
    86	 16.9036	 28.7459	 33.7551	0.803679	 3.58195	-0.303277
    87	  18.101	  29.439	 34.0047	-2.93731	-1.09753	 1.10446
    88	 19.0928	 29.4367	 32.9591	0.938759	 1.94097	0.122463
    89	 18.7907	 28.8838	  31.688	-1.30243	-0.702385	0.353103
    90	 17.6861	 27.9564	 31.6223	 -1.8218	 1.43622	-3.99344
    91	 15.9989	  29.366	 33.9068	-5.39615	 1.72745	-11.3919
    92	 17.1991	 27.8392	 30.6941	 2.83593	-2.05278	 10.2369
    93	 18.1466	 30.2216	 34.7158	  1.7831	-7.74922	 5.56388
    94	 18.6439	 29.5688	   30.85	-7.18244	 2.39879	-1.68489
    95	 20.1132	 29.3634	 33.2289	 3.75494	 5.09135	-2.03597
    96	 16.9616	 26.7014	 33.1457	-0.544219	 1.27405	 11.0201
    97	 21.0971	 36.0136	  20.665	-0.53891	 1.79208	-0.115098
    98	 22.4059	 35.6026	 20.4555	-0.0819885	-1.29064	0.693282
    99	 22.7204	 34.6918	 19.3913	0.430731	0.492073	-0.746209
   100	 21.8189	 34.6406	 18.2802	 2.53921	0.821868	 1.86967
   101	  20.459	 34.8538	 18.5583	 0.70124	-2.55746	-0.751457
   102	 20.0684	 35.5237	 19.7746	0.444133	-0.259941	-1.79362
   103	 23.1197	 36.4026	 20.5449	-0.066567	 5.57834	 10.9345
   104	 19.3642	 36.3588	 19.6364	-2.71011	-5.55355	 8.95417
   105	 23.0901	  33.758	 19.7188	 9.28845	 7.70944	 2.35036
   106	  19.686	 34.3287	 18.0251	-3.97977	 2.47202	  2.9854
   107	 22.1803	 34.6015	 17.2834	-6.66826	 -3.7344	-2.21917
   108	 20.7136	 36.0019	 21.7165	-1.94085	-7.01723	 7.38068
   109	 22.2757	  29.208	  2.9228	-0.988245	 1.26967	 2.29931
   110	 22.8461	  30.354	 2.28228	-0.29525	  3.0446	0.391598
   111	 24.1043	 30.8898	  2.6358	0.932228	0.336875	-1.07146
   112	 24.7468	 30.2569	 3.73378	-1.35495	0.609806	0.155696
   113	 23.9941	 29.4028	 4.55686	0.637788	0.262854	-0.594005
   114	 22.7226	 28.9549	 4.27427	0.722791	-1.69397	 -1.9506
   115	 22.1337	 31.1737	 2.02842	 1.69764	 -6.6962	-0.0134672
   116	 22.2905	  28.053	 4.66057	0.677772	-15.3059	 1.38334
   117	 24.7354	 31.1906	 1.81715	-2.84347	 3.20875	-1.05805
   118	 24.5091	  28.983	 5.37139	 8.55046	 3.08423	-2.02137
   119	 25.6652	  30.701	 4.10895	 9.46462	 8.70319	-1.97837
   120	 22.3425	 28.2794	 2.34857	 6.97467	-5.38839	  3.4911
   121	 20.7401	0.951872	 8.58104	-0.85277	0.123186	0.942141
   122	 21.4279	 0.92744	 9.82994	 0.52182	0.400691	0.0129732
   123	  20.842	0.137034	 10.8387	 1.07815	-1.52377	0.811837
   124	 19.4425	0.309259	 10.9942	-1.78408	-0.451253	-0.252314
   125	 18.6131	0.726409	 9.87778	-0.592153	 -0.5115	-0.518672
   126	 19.3033	 1.10982	 8.67764	-2.10909	 -1.2314	-4.10183
   127	 21.7138	 1.89644	 10.2368	 3.64361	 10.1636	 0.82828
   128	 18.8962	0.597153	 7.80321	  4.8509	-1.42786	-9.33792
   129	 21.1053	  39.111	 10.8085	0.677204	-0.423886	-4.26435
   130	 17.8474	 1.47444	 10.2285	 3.09088	 5.16597	 5.71857
   131	 19.2288	0.854257	 11.8744	 -4.3875	 6.66526	 7.50976
   132	 21.1236	 1.51224	 7.77706	 4.59662	 1.19238	0.0713669
   133	 15.9759	 22.8826	  29.698	-0.916645	-0.695348	 1.27187
   134	 15.8355	 22.9892	 28.2566	 0.48182	-0.102445	-0.512302
   135	 16.6728	 22.1887	  27.399	-0.00116844	-1.32616	 1.08552
   136	 17.5024	 21.2205	 28.0881	-2.65429	-1.66689	-2.09106
   137	 17.7897	 21.2663	 29.4114	-0.34524	-1.73442	0.00786581
   138	  16.719	 21.8088	 30.2069	 1.74914	 3.05846	0.0874022
   139	 15.7814	 23.9905	 27.8458	 8.01173	-5.67986	-0.133077
   140	 16.9562	 21.8768	 31.2841	-4.05479	-1.00976	-3.36832
   141	 17.3316	 22.8135	 26.8448	 4.23454	 2.28735	-0.192656
   142	 18.7747	 21.2531	 29.8486	-6.82692	  3.0138	-9.14527
   143	 17.6051	 20.2775	 27.5197	-9.40321	 5.20379	-3.00148
   144	 14.9721	 22.9151	 30.1294	-9.38397	-7.94922	-1.04021
   145	 15.2226	 29.9062	 18.8656	-0.182851	 -1.0674	 3.18681
   146	 14.1611	 29.8982	 17.8877	 1.90334	 1.89807	-0.291886
   147	 14.2421	 30.8512	 16.8404	-0.0541082	-1.70588	 1.27053
   148	  15.396	 31.6154	 16.6459	-0.40973	 -3.1353	-2.42407
   149	 16.2082	 31.8356	 17.7938	0.745767	-1.51928	 -0.7711
   150	 16.1224	 30.9959	 18.9599	0.611062	-1.11523	-1.25348
   151	 14.0285	 28.8525	 17.4863	-0.722925	 3.15209	0.875115
   152	 16.0128	 31.6282	 19.8196	-1.29286	 -6.2364	-0.547481
   153	 13.3946	   31.56	 16.9439	-2.42935	-6.27307	-0.381947
   154	 16.3261	 32.8841	  17.953	-3.73053	 6.63942	  -2.057
   155	  15.897	 31.3802	 15.7188	 -1.4491	-4.21856	 4.47579
   156	 15.7588	 28.9877	 18.9829	-4.54015	-6.60852	 -7.9257
   157	0.00917652	 27.9898	 6.90361	 1.36747	0.712409	0.372174
   158	 39.8857	 26.6974	 6.28241	-0.169576	-0.496169	 1.02042
   159	0.232731	 25.5863	 7.11241	 2.37034	0.381911	 -3.4879
   160	 39.9452	 25.6433	 8.50808	0.540493	-0.0624733	  1.0986
   161	 39.9844	  26.896	 9.09014	-1.90734	-0.437642	0.163134
   162	 39.8567	 28.1229	 8.33141	0.167778	-1.17795	-2.34903
   163	 38.8518	 26.6028	 5.96955	0.974935	-2.25982	 3.89918
   164	0.558364	 28.8476	  8.8103	 5.92114	 4.71087	-4.85342
   165	 1.01525	 24.9475	 6.82906	0.399407	-4.92605	 8.56707
   166	0.291415	  27.041	 10.1026	 -1.7416	 1.47532	-5.27021
   167	0.269643	 24.7767	 9.11875	-8.48485	0.740993	 7.77325
   168	0.889033	 28.4973	 6.54552	-0.239018	-0.883703	 2.21269
   169	 15.2585	 35.7508	 33.1317	0.884745	0.347586	  0.1817
   170	 14.9571	  35.337	 31.8037	-0.276339	-0.749712	-0.048069
   171	 13.7805	 34.5332	 31.6916	 1.06119	 2.70377	-1.37211
   172	 13.2927	 33.7444	 32.7617	0.0382109	-1.02796	0.0582411
   173	 13.8963	 33.9871	 34.0417	 1.89516	 0.42216	 -1.6507
   174	  14.893	 34.9438	 34.2324	-0.864125	0.0305775	-1.80503
   175	 15.8028	 34.7681	 31.3832	  15.086	-5.29953	 8.62229
   176	 14.6199	 35.6492	 35.0509	-4.13159	0.444339	 7.92576
   177	 13.1752	 34.7496	 30.8486	-5.24538	 10.6377	 4.98238
   178	 13.5085	 33.4302	 34.8993	0.116104	 1.28101	 10.1628
   179	 13.3329	   32.66	 32.5118	-1.61084	 1.31036	  4.0559
   180	 14.9305	 36.8002	 33.3019	-3.92825	 7.39093	  8.0077
   181	 25.9583	 6.60012	 33.5973	 1.85542	-1.74088	-0.291528
   182	  25.795	 8.01899	 33.7386	-1.18895	 2.64018	 1.03134
   183	 25.1446	 8.51464	 34.9194	-2.60237	-0.0262547	 1.80097
   184	 24.7564	 7.64775	 35.9683	-1.50139	-3.12754	 1.71334
   185	 24.8711	 6.22874	 35.7111	 1.98567	 1.22092	-2.75469
   186	 25.4445	 5.75186	 34.5176	0.0439571	-1.88173	-0.976063
   187	 26.6919	 8.56639	  33.551	 6.49403	 2.45728	 -3.7886
   188	 25.1932	 4.72721	 34.3808	 2.23253	 3.81378	 3.75669
   189	 24.4131	 9.32219	 34.6565	 3.77754	-16.1045	-4.69445
   190	 23.9227	 5.67562	 35.9704	-2.54479	 7.71158	-6.05303
   191	  24.989	 7.89678	 37.0028	 3.81074	-6.62521	-2.50693
   192	 26.7036	 6.26316	 32.9045	 -2.9076	0.847782	-0.985281
   193	 28.8395	 30.0102	 37.7526	-3.07145	 2.50795	 1.49328
   194	 28.2693	 31.3275	 37.7929	-0.47186	-1.42353	-0.395064
   195	 28.9514	 32.4441	 38.3413	 0.56479	-0.494144	0.0934224
   196	 30.2834	 32.2513	 38.8726	-0.325051	  3.3421	-0.323683
   197	 30.6915	 30.9688	 39.0798	 3.06395	-1.65565	-0.21139
   198	 29.9744	 29.8348	 38.6191	-0.45419	 0.48916	-2.57616
   199	 27.7961	 31.5982	  36.846	 6.97678	0.446744	0.409054
   200	 30.6478	 29.0855	 38.2709	-4.75986	-5.46079	-5.38133
   201	 28.3556	 32.8808	 39.1545	-7.66916	-3.05716	-3.76456
   202	 31.7398	 30.7982	 39.4104	-1.48653	-11.5509	 3.75953
   203	 30.9251	  33.086	 38.7394	 4.86391	 1.61167	-2.85556
   204	 28.0426	 29.3364	 38.1256	0.763051	-4.60866	 4.81697
   205	 28.3541	 8.68341	 39.1429	0.609669	0.913446	-0.82471
   206	 28.5955	 10.0744	 39.0353	-0.52028	 1.15485	 1.32996
   207	 27.7576	 11.0974	 39.4068	 1.60167	 1.36517	-0.0523623
   208	 26.4293	 10.7326	 39.6295	-1.81405	 2.22776	-2.29164
   209	 26.1013	 9.38863	 39.6312	-3.32172	-0.0341039	0.997951
   210	 27.0811	 8.39165	 39.7337	0.975963	-2.41932	0.907314
   211	 29.5126	 10.4013	 38.6144	-5.01849	 1.16072	-4.39113
   212	 27.1453	 7.80877	0.684463	-2.86235	-2.91731	 12.7845
   213	  28.152	 11.7205	0.255373	 8.05554	 4.21099	-4.03668
   214	  25.112	 9.17617	 39.3252	 2.47111	0.0207287	-4.23071
   215	  25.916	 11.3863	0.320138	 4.97279	 3.64313	 8.29434
   216	 28.4311	 8.16466	 38.1916	-8.48536	 5.25582	 6.18083
   217	 18.4752	 5.57934	 2.15985	-0.895479	-0.970005	-0.605937
   218	 17.1108	 5.67982	 2.44381	0.586712	0.773001	0.824329
   219	 16.5695	 7.01551	 2.38338	0.186862	-2.29663	 1.42226
   220	 17.5298	 8.07472	 2.37078	-0.463546	   1.219	 1.07107
   221	  18.875	 7.88374	 2.16791	0.781964	0.766566	-1.59819
   222	 19.4045	 6.61995	 2.37269	-0.988711	0.619536	-1.33667
   223	 16.8268	 5.27671	 3.43119	 1.86265	 6.95161	 1.26041
   224	 19.9734	 6.50284	 3.33945	 4.32131	-4.53051	 5.62324
   225	 15.7217	 7.14079	 1.68811	-14.5558	0.176801	 3.91588
   226	 19.5734	 8.74011	 2.02076	-0.774554	 4.40378	0.134851
   227	 17.1364	 9.07547	 2.20957	-8.23414	 2.16003	-6.55828
   228	 18.7209	 4.94338	 1.31772	 2.40702	 4.50214	-5.50263
   229	 4.21151	 24.0038	 18.7812	 1.05699	0.757639	 2.90713
   230	 4.32154	 22.5906	 18.5497	-4.49671	  2.3733	 1.52269
   231	 3.21917	 22.0925	 17.7869	0.230557	0.0830366	0.680722
   232	 1.95516	 22.6837	 17.7091	 1.40305	-0.389327	 1.32216
   233	 1.98566	 24.0975	 18.0089	0.313676	-1.55063	 1.45492
   234	 2.95511	 24.6569	  18.898	 0.63796	 0.57542	-0.631087
   235	 4.23639	 22.1261	 19.5497	-2.63241	 6.14615	  1.8812
   236	 2.68112	 24.6331	 19.9431	 1.05787	-10.2751	 5.25388
   237	 3.35306	 21.1828	 17.2024	 4.40171	 1.82174	-4.93145
   238	 1.95498	 24.7641	 17.1186	 9.78233	-5.36287	  5.8837
   239	 1.31261	 22.2065	  18.455	 6.95994	-6.43539	-7.37122
   240	 4.89734	 24.5171	 18.0971	 1.19504	 0.87775	0.792741
   241	0.861277	 14.9457	 28.6828	-1.10783	-1.03191	-1.50462
   242	 1.94026	 14.2422	 29.3035	 3.31954	   1.716	 1.01913
   243	 2.94805	 14.9517	 30.0635	-1.78109	-1.09496	-0.574415
   244	 2.89168	 16.3309	 30.0597	0.999703	  1.0293	-2.69088
   245	 1.87472	 17.0603	 29.3521	-2.40851	 1.86135	0.236353
   246	0.823034	 16.3375	 28.8388	-0.618823	-0.388977	-0.520465
   247	 2.43538	 13.5532	  28.569	 4.59923	-2.92412	-5.70977
   248	  39.889	 16.8396	 28.8747	-6.12364	-2.32647	  3.3828
   249	 2.93644	 14.5133	 31.0459	-0.0165232	 5.66485	 9.61484
   250	 1.63038	 17.9975	 29.8998	 7.84709	 4.50546	0.780204
   251	 3.09721	 16.7258	 31.0477	 4.45243	0.228738	 0.16484
   252	0.640151	 14.5604	 27.7071	-2.74765	 5.96042	0.339082
   253	 22.5218	 17.7512	 11.8893	-3.44299	-1.23147	 2.12271
   254	 23.7899	 18.3668	 11.9436	 2.48195	 1.40579	-2.04801
   255	 24.9044	 17.6769	 12.5571	-2.04621	0.202402	 2.34924
   256	 24.7394	 16.2967	 12.9689	 2.86086	-1.70241	0.539675
   257	 23.5349	 15.6226	 12.7169	 1.46866	 3.13507	 2.23382
   258	 22.4375	 16.3606	 12.1663	-2.09015	-2.17482	 1.91601
   259	 24.1314	 18.6415	 10.9124	 4.09011	 3.14479	 5.25024
   260	 21.4781	 15.9999	 12.6155	-1.43685	 4.37757	-6.98222
   261	 25.8796	 17.8764	 12.0849	-3.14263	 11.1955	  2.4961
   262	 23.7263	 14.6821	 12.1838	-2.38362	 9.59586	-2.60305
   263	  25.642	 15.6552	 12.8831	-4.19576	 1.77906	 12.0319
   264	 21.8459	 18.3395	 12.5367	 8.11208	-8.90114	-0.112354
   265	 11.1125	 12.2176	 22.9927	-0.369482	 -2.3588	0.0818163
   266	 12.4803	 12.1442	 23.0401	   2.784	 1.64036	 2.87441
   267	 13.1872	 13.3935	 23.1202	  2.2969	-0.869317	-3.02549
   268	 12.5333	 14.6366	 22.9204	0.769621	-1.60146	 1.26967
   269	 11.0982	  14.581	 23.0177	-3.31687	-4.86618	-1.05897
   270	 10.3875	 13.4225	 23.3442	0.570008	-0.649831	0.711362
   271	 13.0489	 11.2339	  22.933	-7.76245	-4.79237	 5.10353
   272	 10.1338	  13.372	 24.4333	-1.98032	-6.96253	-4.27068
   273	   13.86	 13.4863	 23.9929	 3.66306	 3.02512	-10.3076
   274	 10.5729	 15.1458	 22.2248	 6.65399	-4.05811	-1.52987
   275	 12.9266	 15.3489	 23.6551	 2.83897	 9.92079	-1.25751
   276	 10.5382	 11.6988	 22.2045	  9.4587	-5.15801	  -4.115
   277	 4.73509	  36.173	 18.1742	0.068727	-0.176013	-0.534884
   278	 3.63644	 35.4276	 18.6463	-0.82694	-1.94036	-2.65248
   279	 3.31692	 35.5318	 19.9628	-0.779094	 2.42526	-2.07996
   280	  4.0305	 36.2468	 20.9148	0.282408	0.662143	0.256293
   281	 5.24406	  36.784	 20.5301	0.0864911	 2.64322	 2.13844
   282	 5.41748	 36.9179	 19.1065	-0.831389	0.672226	 -2.2864
   283	 2.85504	  35.157	 17.8749	-3.56126	-0.172638	-4.83431
   284	  6.5165	 36.9473	 18.8525	-5.45765	-5.94018	 11.7501
   285	 2.81245	 34.6954	 20.4337	 5.55344	-13.9102	 9.03459
   286	 6.10777	 36.5265	 21.0685	-3.66256	-13.5831	-6.27543
   287	  3.5091	 36.6376	 21.7933	-2.77644	-4.98531	 2.31421
   288	 4.67601	 36.4731	 17.1489	 3.96055	  9.7936	-3.89084
   289	 22.2781	 2.44904	 27.6498	-0.0546923	 2.11016	-2.36644
   290	 23.5862	 2.77619	 27.5387	-0.430212	0.684796	0.846467
   291	 23.9913	  4.0504	  27.275	-0.583913	0.590626	 -1.4048
   292	 23.0163	 5.10053	 27.2588	-1.28741	0.268575	-3.15499
   293	 21.6784	 4.83623	 27.5367	 3.06278	-1.39667	-4.25301
   294	 21.2606	 3.46998	  27.601	 3.63463	-3.35553	 1.04183
   295	 24.3969	 2.19803	 28.0262	 6.18282	 3.62336	-3.42079
   296	 20.3713	 3.34435	  28.177	-2.25572	-0.355229	 12.1122
   297	 24.9842	 4.39096	 27.1352	  4.7041	-0.494984	-6.40108
   298	 21.0592	  5.5068	 26.8999	-0.449055	  7.0695	-1.50692
   299	 23.2181	 5.91482	 26.5144	-4.46323	-5.27658	-8.09837
   300	 21.9407	 1.47425	  27.453	-6.03456	-5.33442	 3.86292
   301	 20.3713	 34.6813	 8.02066	0.139189	 2.90783	-1.61955
   302	 19.6428	 35.2779	  9.0436	 2.10695	-0.745045	 1.68355
   303	 19.1482	 36.5932	 8.74096	 2.56476	 1.07092	0.589343
   304	 19.9475	 37.4508	 7.97629	 1.66671	0.734133	-0.778331
   305	 20.5181	 36.7902	 6.82718	 2.38709	-3.30234	-1.25764
   306	 20.9061	 35.4086	 6.89773	  1.4155	0.910497	-0.34954
   307	 20.1896	 35.2775	 10.0047	 1.99229	    3.04	 3.16972
   308	 21.9876	 35.4046	 7.02112	 3.63495	 4.50597	 2.14546
   309	 18.1856	 36.8531	 9.08074	 2.18809	-7.16415	-10.5456
   310	 20.0966	 37.0729	 5.84824	 3.55347	-3.52915	-3.03899
   311	 20.7074	 37.9989	 8.45549	-3.02561	-3.31354	0.352026
   312	 19.9567	 33.7559	 7.63892	 5.26433	 9.23887	-0.249733
   313	 32.9651	 19.4909	 23.8276	-1.56019	-1.07448	-0.0177631
   314	 32.1057	 18.6528	 23.0505	0.633797	-2.68078	-2.58189
   315	 31.4897	 19.1027	 21.8586	-0.390899	0.0384335	-3.58711
   316	 32.0554	 20.1764	 21.2418	 1.07461	0.445363	 0.61281
   317	 33.3355	 20.6177	 21.7016	0.260395	-2.79112	0.248285
   318	 33.7861	 20.3109	 23.0333	 5.34917	-1.87533	0.816583
   319	 32.2045	 17.5779	 23.2139	 1.44815	 6.60838	-5.30677
   320	 34.8328	 19.9268	 23.0145	-2.86851	0.413019	 5.14581
   321	 31.1062	 18.2923	 21.2815	-10.8462	-12.7029	 7.54844
   322	 33.7151	 21.4917	 21.2346	-4.45978	 7.51342	 1.52131
   323	 31.9642	 20.2369	  20.118	 1.79222	-2.76703	-0.162769
   324	 32.4894	 20.0324	 24.6314	-0.224695	-1.11049	 2.29625
   325	 4.67445	 4.06141	0.0308801	-1.09701	-0.741404	-2.53626
   326	 5.91466	  4.7586	0.0811124	0.456013	0.285754	-0.434723
   327	 7.10128	  3.9713	0.361744	-1.80173	 0.65054	0.382111
   328	 7.06195	  2.5854	0.0488291	-0.536327	-0.427859	-0.00171515
   329	 5.87275	   1.946	 39.9146	0.0453762	-0.0437996	 1.21843
   330	  4.6444	 2.63197	0.189886	   1.613	0.688707	  1.9615
   331	 6.03398	 5.35067	 39.1385	 7.56288	-12.7643	 8.90992
   332	 4.35722	 2.38431	 1.18817	-2.89682	-1.10077	-3.98995
   333	 7.64226	 4.23318	 1.26263	-10.2388	 2.52297	 -6.7275
   334	 5.80979	0.987974	0.488405	 4.95986	 7.05209	 1.10429
   335	 7.85344	 2.43781	 39.2646	 2.13206	 1.72243	 2.26898
   336	 4.01704	 4.33755	 39.1906	-6.33556	-12.6704	-9.94234
   337	 6.40274	  9.1399	 4.88086	-3.02065	 1.73509	0.524166
   338	 6.86815	 10.4634	 4.79393	-2.08151	 2.07504	0.977152
   339	 8.07987	 10.8341	 5.26932	 1.12629	0.419294	 1.40903
   340	 9.04441	 9.80675	 5.54485	 3.26085	-2.67591	0.532568
   341	 8.62874	  8.4809	 5.72836	0.254142	 1.36099	 1.72868
   342	  7.2518	 8.13185	 5.44626	-0.660758	0.824282	-4.03283
   343	 6.17905	 11.1487	 4.33681	 15.8499	-3.56469	0.0249405
   344	 6.73306	  7.5495	 6.21528	 8.93644	  15.719	-7.08779
   345	 8.18344	 11.5807	 6.09483	-4.33688	-1.30952	-2.17499
   346	 9.04348	 8.11576	 6.67252	-3.40681	 8.42683	 5.36457
   347	 9.99223	 9.95777	 5.08753	-5.54222	0.191287	 6.08465
   348	 5.91274	 8.84975	 3.97138	-8.87282	 2.25768	-1.11525
   349	 36.3451	 23.0621	 24.6238	  1.2442	-1.07312	 1.14353
   350	 35.2486	 22.6227	 25.4258	-0.488202	-2.09911	-1.37926
   351	 35.5863	 21.8177	 26.5119	-1.59001	-0.801635	 2.08028
   352	 36.6639	 20.8738	 26.3481	-0.661395	 1.31058	-0.634008
   353	  37.802	 21.4624	 25.6722	-1.96608	-1.17837	  0.4681
   354	 37.4822	 22.2053	 24.4788	 3.21914	-3.03813	 1.99761
   355	 34.2634	 22.8196	 25.1037	-3.32968	 5.94486	-12.2452
   356	 37.3808	   21.53	 23.6571	-8.69128	 5.84195	 8.35447
   357	 34.7421	  21.373	  27.048	-10.2859	-0.45101	-4.44854
   358	 38.4849	 22.0245	 26.2426	-10.2813	 10.2749	 7.17075
   359	 36.3503	 19.9974	 25.7496	 4.25308	-3.38716	 -3.4103
   360	 36.5644	 24.1284	  24.798	-7.72391	-4.12925	-10.2776
   361	 12.4914	 13.7512	 38.1549	 2.82062	-3.24087	-1.20489
   362	 12.9243	 14.9948	 38.5049	-1.20644	 0.41046	 0.67351
   363	 14.1909	 15.1957	 39.0543	-2.34578	0.568961	-1.95287
   364	 14.9699	 14.0867	 39.4182	0.704373	-1.07849	-2.34653
   365	 14.5211	 12.7704	 39.0916	-0.743527	 -1.1473	 3.01896
   366	 13.2123	 12.5627	 38.5046	 2.31929	 1.44953	-2.34815
   367	 12.7029	 15.8722	 37.8347	  8.5746	 7.36765	-11.3425
   368	 12.6333	 11.8485	  39.144	-7.25988	-0.0121769	0.107187
   369	 14.7946	 16.0022	 38.6398	-2.80798	 6.32515	 5.96219
   370	  15.323	 12.2163	 38.6597	 3.07742	 1.77003	 2.45194
   371	   15.28	 14.2235	0.479776	-3.89265	-7.46193	 2.30142
   372	 11.4675	 13.5765	 37.8827	-8.06064	 4.75498	-0.300576
   373	 38.9883	 34.0795	 1.82033	 1.39523	-1.05778	-2.42593
   374	  38.923	 32.7729	  2.3198	0.877558	0.150731	-0.893102
   375	 37.6523	 32.1788	 2.36679	0.859316	-1.59685	0.838708
   376	 36.6054	 33.0374	 2.43391	-2.00098	 1.07247	-1.41009
   377	 36.5304	 34.2857	 1.78514	 1.15198	 3.81084	0.0222796
   378	 37.8159	 34.7847	 1.33948	0.351764	-2.46908	-1.75376
   379	 39.7023	 32.3288	 2.87118	 2.24553	 9.10323	 8.92048
   380	 37.8775	 35.8508	 1.49855	 8.35604	-3.34594	 1.32495
   381	 37.5781	 31.2645	 1.81416	-9.21493	 2.21909	 4.44891
   382	 35.9514	  35.097	 2.29596	-3.51837	-1.41941	  8.4585
   383	 35.6427	 32.4913	 2.30605	 10.7125	-0.987552	 8.96243
   384	 39.7532	 34.0804	  1.0051	-6.54638	-8.64512	 4.86868
   385	  27.669	 34.0702	 15.2121	-0.901928	0.595115	0.622052
   386	 26.4136	 34.0565	 15.7315	-0.347233	-2.60534	-0.419702
   387	 25.7724	 32.8123	 15.8799	 -1.6663	 1.62725	-1.97936
   388	 26.4449	 31.7542	  15.324	0.904766	-0.865156	-1.09698
   389	 27.6971	 31.7893	 14.6659	 3.22756	 1.23015	-0.925161
   390	  28.175	 33.0615	 14.3647	-0.404078	  1.9055	 1.32644
   391	 25.9125	 34.8505	 16.2118	-1.55403	 5.67993	-11.8433
   392	 28.1107	 33.4117	 13.3388	-4.57888	 0.85696	-4.02314
   393	 25.2657	  32.639	  16.865	0.503442	-0.780389	 3.87026
   394	 28.2136	  30.905	 14.3926	-1.14393	 1.34294	-0.937854
   395	 26.1007	 30.7193	 15.4151	-3.90808	-6.25593	 2.11182
   396	 28.2206	 34.9796	 15.3472	 4.67042	 3.65094	  0.3428
   397	 10.3175	 38.7637	 24.6518	-0.284684	 3.94895	-1.56505
   398	 10.3373	 38.4554	 26.0613	-0.196081	-0.0687218	0.462402
   399	 11.5009	 39.0304	  26.707	-0.428074	 2.43879	0.990478
   400	  12.712	 39.0411	 26.0841	0.922713	-0.21909	 1.69905
   401	 12.6938	 39.3256	 24.7061	 2.47163	-1.48084	-0.585727
   402	 11.4201	 39.4142	 24.1606	-0.590117	-0.724079	0.667969
   403	 10.4426	 37.3859	 26.1301	 1.71136	 2.54295	 2.51867
   404	 11.3594	0.0264764	 23.3044	-4.19297	 4.91908	-0.570012
   405	 11.3986	 39.2095	 27.7419	-0.406145	 -2.5391	0.120168
   406	 13.2985	 38.5974	 24.1085	 6.14238	 -10.763	-4.73403
   407	 13.5605	 39.5629	 26.5324	 1.00123	 5.24409	  0.2301
   408	 9.72151	 38.1319	 24.0409	 1.08687	-3.36935	-2.85771
   409	 27.3915	 37.5277	 11.5524	-1.41682	 1.55147	-0.0253077
   410	  28.547	 37.5216	 10.7499	 3.20187	-1.86614	-1.65582
   411	 29.6773	 38.2414	 11.1817	0.0577925	-2.80921	 1.78538
   412	 29.7757	 38.7268	 12.4385	-1.88841	-0.00285391	-1.47653
   413	 28.7345	 38.5261	 13.3576	-1.61279	-2.32952	 1.64011
   414	  27.561	 37.8133	 12.9658	-2.00252	-2.30135	 1.26946
   415	 28.4137	 37.2818	 9.70779	-0.623836	-2.60597	-3.44177
   416	  27.256	 36.9339	  13.487	-5.09107	-6.85598	  7.2283
   417	 30.2915	 38.6893	 10.3497	 8.90779	-15.8315	 1.22289
   418	 28.9949	 38.2434	 14.3958	  5.9925	-15.5971	 -4.6865
   419	 30.5277	 39.4502	 12.6033	-3.77869	-7.82564	-3.36166
   420	 26.5516	 37.9985	 11.1295	-1.81846	 2.81318	-1.20164
   421	 12.0258	 32.2258	 9.07197	-0.178447	0.653301	 1.12808
   422	 12.3601	  30.953	 9.55279	 2.17979	0.976386	0.998228
   423	 11.8232	 30.6035	 10.7532	 2.44411	0.204615	-0.117333
   424	 11.8055	 31.6792	 11.7054	0.198693	-0.290496	-0.172426
   425	 11.3484	 32.9603	 11.2644	 1.32326	0.756954	0.741705
   426	 11.8696	  33.308	  9.9699	 0.33728	  1.4433	 3.46549
   427	 13.1166	 30.3496	 9.12987	 4.17432	 8.67763	 2.80936
   428	 12.8496	 33.8467	 10.0642	   3.054	-3.35721	 6.14627
   429	  10.853	 30.0288	 10.8175	 -14.887	  9.5939	-5.69703
   430	 11.7284	 33.7474	 11.9713	-5.49796	-3.50428	-0.562286
   431	 12.8459	 31.7625	 12.0818	 2.48931	-0.219347	0.393897
   432	 11.0932	 32.1297	 8.47336	-2.16211	-2.57649	 2.58055
   433	 30.7046	 29.3811	 9.51596	0.221096	-0.272931	0.687485
   434	 31.5078	 28.3955	 8.85446	0.407836	0.0941683	-2.46388
   435	  31.587	 27.1227	 9.40666	-1.48687	0.753772	 -2.4765
   436	 30.7578	 26.6789	 10.4022	-1.04031	-1.54505	-1.55261
   437	 29.6166	  27.483	 10.7286	-1.98551	0.913027	-1.09048
   438	 29.5997	  28.825	 10.2729	 2.32419	-1.18601	-0.407758
   439	 31.9811	 28.6701	 7.94872	-5.98336	 9.47161	 3.46267
   440	 29.1195	 29.5743	 10.8726	 1.16915	-2.93465	 3.36791
   441	 32.6074	 26.7865	 9.49039	 10.9015	0.0668816	-5.37891
   442	  29.456	 27.5493	 11.8365	 3.80247	 9.57211	 -3.1359
   443	 30.3956	 25.6317	 10.2946	-5.92792	 1.95113	 1.25136
   444	 31.3377	 29.8856	 10.2978	-6.09658	-5.44697	-3.10605
   445	 16.9353	 19.9303	 22.1635	-2.76608	-2.55258	-0.148014
   446	 18.0971	 20.7579	 22.0242	   3.753	0.249522	 1.15441
   447	 18.0682	  22.093	 22.5482	 -1.1316	-1.02953	0.535811
   448	 17.1471	 22.3462	 23.6177	0.333427	0.418101	0.776956
   449	 15.9122	 21.6675	 23.6442	 3.03999	0.925102	 2.16945
   450	  15.905	 20.3834	 23.0539	  1.3055	0.948321	-1.41278
   451	 19.0698	  20.339	 22.1497	 3.73028	-1.14443	 4.77108
   452	 14.9423	 20.1411	 22.5321	 2.87545	-2.87318	-3.45409
   453	 19.0685	 22.4043	 22.8953	 1.24428	 3.19138	 4.15289
   454	 15.2005	  21.918	 24.4191	-1.85938	-6.22197	 6.26249
   455	 17.0404	  23.342	 23.9478	-3.34186	 2.37828	 7.03402
   456	 16.5531	 19.4386	   21.28	0.853718	0.963616	-4.39472
   457	 15.1341	 16.6027	  11.114	  2.4618	-1.34554	-0.81783
   458	 16.3654	 17.1721	 11.5786	-0.448293	 0.76584	-1.19608
   459	 17.2148	 17.7206	 10.6497	0.176514	-1.36667	0.318051
   460	 17.0303	 17.6796	 9.22686	-0.381808	  1.5948	-1.55356
   461	 15.9166	 16.9113	 8.79781	0.372178	 3.55237	-0.917216
   462	 14.8759	 16.7434	 9.74466	-2.70578	0.364475	-2.37647
   463	 16.3758	 17.5982	 12.5498	-4.31741	 8.57009	-0.253379
   464	 13.9742	 17.2984	 9.50245	-6.27824	 4.01388	0.0893218
   465	 18.2795	 17.6292	 10.8358	 4.87307	 3.85483	-4.85569
   466	 15.6376	 17.0752	 7.77927	-3.17634	  1.7225	-0.0534224
   467	 16.9351	 18.7126	 8.78968	-2.02906	-6.21569	-9.40531
   468	 15.0077	 15.5577	 11.4839	0.0315452	0.423583	  -4.318
   469	 20.7132	 19.5533	 38.9245	-0.752556	-0.856613	 4.28648
   470	 21.8797	 20.2514	 38.4157	-0.899108	0.456266	-1.78996
   471	 22.0424	 21.5664	 38.9439	-0.99531	0.724499	-1.60517
   472	 20.9387	 22.3641	 39.1474	-1.91901	-2.11075	-2.36348
   473	 19.6752	 21.7497	 39.3869	-5.07788	-1.22085	0.0415262
   474	 19.7094	 20.3823	 39.5429	0.677478	-1.09504	 2.74469
   475	 21.8054	 20.2107	 37.2999	0.670001	-8.65531	-5.52516
   476	 18.7621	 19.8822	 39.7039	-6.30048	-4.71219	  7.9425
   477	 23.0124	  21.957	 38.7194	 3.08129	 6.08958	 4.72396
   478	 18.8278	 22.1508	 38.8264	-0.471046	-3.22573	-6.92012
   479	 21.0087	 23.2567	  39.755	-0.979195	-2.51702	 2.36727
   480	 20.3929	 18.8176	 38.2078	 1.29096	-8.06454	 4.16617
   481	 35.1573	 34.6408	 12.5013	 3.46089	  1.6851	0.0354611
   482	 34.1371	 35.5139	  12.342	0.619011	 2.44089	 -3.0585
   483	 33.0751	 35.2367	 11.4331	-0.767098	 1.14213	-2.26297
   484	 33.1976	 34.1137	  10.539	 -1.0309	-0.916815	-3.24159
   485	 34.3217	 33.3051	 10.5999	-2.41396	-1.29789	-1.40372
   486	 35.3917	 33.6443	   11.52	-2.22317	-0.34957	-1.34511