ITEM: TIMESTEP
4.13005
ITEM: NUMBER OF ATOMS
1200
ITEM: BOX BOUNDS
0	40
0	40
0	40
ITEM: ATOMS index type x y z
     1	 10.0756	 22.9931	 31.8503	-0.937081	-0.0709772	0.0394382
     2	 10.3042	  22.806	 33.1732	 1.19252	 2.56145	-1.08854
     3	 9.22255	  22.562	 34.1067	-2.91282	 -4.3884	 4.25893
     4	 7.98351	 22.1613	 33.5239	 1.55905	 3.04168	 4.41352
     5	 7.68323	 22.6024	 32.2064	-7.96714	  2.4875	-0.560748
     6	 8.76245	 22.6591	 31.3336	 4.44385	 1.43522	 1.89933
     7	 11.3247	 22.5411	 33.5444	 8.09256	 10.8049	0.354862
     8	  8.8672	 21.8207	 30.5838	-4.31211	-18.4394	-5.10563
     9	  9.1754	 23.3899	 34.7924	-12.3774	-18.3816	-0.646346
    10	 6.97382	 23.3877	 32.1159	-3.83908	 19.6867	 8.15189
    11	 7.85988	  21.068	 33.6052	-2.23603	 4.43025	-2.36934
    12	 10.5107	 23.7924	 31.2453	 2.33291	 5.15076	 1.60982
    13	 4.43373	 38.1458	 28.3901	 2.24023	0.895139	-4.58779
    14	 5.33403	 39.2399	 28.7057	0.505891	-0.449034	-2.37813
    15	 5.16865	0.463897	 28.0084	0.621206	 4.58805	-1.99357
    16	 4.45759	0.551783	 26.7511	 2.65705	 6.44789	-1.04919
    17	 3.66189	 39.3811	 26.4313	0.486927	-0.41282	 1.11821
    18	 3.75521	 38.1724	 27.1623	 2.43964	-0.469802	-1.97111
    19	  6.3826	 38.8981	 28.5988	-6.47745	 3.38358	 2.09073
    20	 3.70925	 37.2728	 26.5462	 12.7917	-22.2961	  8.0453
    21	 4.70947	 1.27755	 28.6223	 6.15739	-9.92731	 1.86342
    22	 2.58874	 39.6608	 26.4345	 1.71386	 7.39577	 5.18295
    23	 5.07991	0.776386	 25.8881	-0.173296	 6.17887	-2.74343
    24	  3.8419	 37.8786	 29.2727	0.163774	-15.7657	 12.4543
    25	 2.26013	 26.0895	 36.4903	 1.51622	 3.82878	-1.55075
    26	 1.78906	 24.9009	 37.1493	-0.312573	-0.599949	-0.902966
    27	 1.43347	 25.1579	  38.525	-0.337936	 1.17144	-0.0572435
    28	 1.25754	 26.4048	 39.0862	-0.0972798	  1.1585	 4.77484
    29	 1.66355	  27.529	 38.2669	 3.78902	-0.557787	-0.55261
    30	 1.96338	 27.3717	 36.8789	-0.814949	-4.63088	-0.575154
    31	 1.21479	 24.1859	 36.5942	 21.0169	 1.45228	-1.24177
    32	 1.51713	 28.0307	 36.1699	-8.93008	 6.62236	-13.8433
    33	 1.70406	 24.2974	 39.1547	 7.72231	 16.3916	-0.585095
    34	 1.03128	 28.4311	 38.4812	0.107651	-0.197973	 9.15129
    35	 1.75426	 26.4661	0.0368964	 -1.0782	 8.08342	 7.17498
    36	 3.23354	 25.9211	 35.9806	0.904835	-0.978305	 -2.2576
    37	 21.9666	 37.0227	 37.8147	-2.76397	 5.19602	-3.37806
    38	 23.2174	 36.5194	 37.4251	 0.37005	-1.96941	 3.59593
    39	 23.5737	 36.5144	 36.0377	 4.27022	 1.09133	0.818831
    40	 22.5896	 36.9312	 35.0724	0.703525	0.0825882	 3.98191
    41	 21.5176	 37.6471	 35.4683	-0.474417	-2.64587	-1.73857
    42	 21.2123	 37.7849	 36.8547	0.189151	-1.06335	 1.30476
    43	  24.023	 36.8449	 38.0241	 -4.4581	-4.93431	 11.3002
    44	 20.8787	 38.7654	  37.116	-19.7887	-2.82863	 -4.2458
    45	 23.9763	 35.5713	 35.6933	-11.3794	 -10.704	-10.2355
    46	 21.0287	 38.3408	 34.8327	 -1.3529	 12.7525	 17.7396
    47	 22.2788	 36.0158	 34.4972	-14.6372	 3.29582	 -2.5885
    48	 21.3629	 36.2213	 38.2631	 16.7678	 5.20615	-4.80939
    49	 34.6843	 22.8146	 35.8742	-6.88855	 5.51836	 5.72224
    50	 34.5219	 24.0846	 36.4796	 1.31468	-0.832716	-0.561671
    51	 33.2512	 24.3468	 37.0229	 4.50219	-4.18288	 1.01729
    52	 32.2248	 23.3666	 37.1176	 2.19439	 2.51698	0.372921
    53	 32.4177	 22.2295	 36.3163	-2.56339	0.563016	 2.21319
    54	 33.6474	 21.9506	  35.629	-0.567907	 1.27429	-0.776705
    55	 34.9667	 24.8708	 35.8561	-4.37805	 1.31868	  17.703
    56	 33.4335	 21.5562	 34.6391	 5.94542	-13.6566	-27.3964
    57	 33.2509	 24.9763	 37.9492	 15.6352	 3.18806	-2.70634
    58	 31.5695	 22.0432	 35.6458	 -1.2391	-8.94611	-10.3534
    59	 31.8553	 23.2699	 38.1347	 19.9204	-5.42025	0.618672
    60	 35.4815	 22.2431	 36.4325	 -12.546	-0.229903	 2.94625
    61	 30.3974	 27.3365	 19.4925	-0.0372153	-2.64307	-1.36027
    62	 30.5434	 27.3568	 20.9068	-2.60421	 1.48212	 1.36432
    63	 29.3162	 27.7208	 21.5728	 3.94118	-0.683432	 3.18517
    64	 28.4731	 28.7429	 21.0179	-0.0276575	-3.09167	-3.26679
    65	 28.6606	 29.0842	 19.6232	-1.42459	  1.1923	 3.71987
    66	 29.4552	 28.1966	 18.8099	 1.62263	-0.510683	-4.19994
    67	 31.3671	 27.9956	 21.2359	 17.4917	-3.33072	-1.12966
    68	  29.933	 28.6611	 17.9261	-0.312811	-7.94091	-1.94358
    69	 28.7455	 26.8756	 21.9353	-2.69605	 -2.9475	 3.16603
    70	 27.7311	 29.3622	 19.1647	0.707268	 20.2813	 5.96658
    71	 28.5901	 29.6059	 21.7153	-8.92276	-6.12007	-4.79491
    72	 30.5957	 26.3723	  18.986	-12.1542	 7.77752	 3.20718
    73	 6.57494	 27.2773	 11.5873	-2.30203	-1.83827	 4.40244
    74	 6.44867	  26.798	 12.9419	 3.19722	  1.3946	-3.27711
    75	 6.51001	 25.4342	 13.2881	-2.19517	 3.34816	 3.02271
    76	 7.05684	 24.5815	 12.2681	-2.89717	-2.47523	0.0995982
    77	 7.24047	  24.988	 10.9308	 4.87695	-0.906997	-0.713985
    78	 7.26158	 26.4109	 10.7087	 2.27768	-2.64435	 1.32463
    79	 7.03847	 27.4936	  13.575	 3.59235	 6.13238	-16.1912
    80	 8.07881	 26.8153	 10.1432	  2.1049	 18.7027	-2.27955
    81	 5.70058	 24.9863	 13.8815	 7.55943	-20.0772	-4.57692
    82	 6.45113	 24.5607	 10.3079	 1.48828	 8.60806	-7.51752
    83	 7.88141	 24.0618	 12.7207	-15.5822	 2.64312	-4.34595
    84	 5.67531	 27.7385	 11.2068	-5.15937	-4.83896	 2.07971
    85	 13.4569	 33.0592	 28.4849	-2.62649	 3.47524	 1.89699
    86	 12.8891	 32.2139	 29.4765	 11.5597	-4.79058	-8.36735
    87	 13.6478	 31.1256	 30.0032	 6.44889	 3.12184	-3.08737
    88	 14.7873	 30.6352	 29.2759	-7.85295	 -4.9701	 2.18191
    89	 15.4965	 31.6721	 28.5575	-8.01458	 1.53893	 2.35916
    90	 14.7794	 32.7269	 27.9868	-2.52788	 4.02492	  2.5082
    91	 11.8523	 31.8526	 29.3172	-8.11395	 29.6249	 10.5929
    92	 15.3988	 33.5854	 27.7334	-23.2099	 3.90519	 -6.4955
    93	 13.7512	 31.2673	 31.0629	-17.6049	 25.7664	 27.2315
    94	 16.3733	 31.9214	 29.0954	-10.5744	-13.4667	 11.2863
    95	 14.3812	 29.9586	 28.5161	-14.7421	 29.8347	 4.72721
    96	  12.819	 33.0638	 27.6186	 17.7573	-33.8739	-7.76674
    97	 20.2627	 36.8676	 19.2104	0.803775	-3.46459	0.0203181
    98	 20.0241	 38.2555	 18.8871	-2.14622	 3.47473	-1.55733
    99	 19.1648	 38.9883	 19.7952	0.755811	 3.14537	0.0127534
   100	 18.7769	 38.4348	 21.0155	 2.61173	-2.62267	-1.45576
   101	 19.4054	 37.2124	 21.4477	 3.82562	  1.8263	 2.82169
   102	 19.7544	 36.2911	 20.3848	-3.09717	 4.33147	 3.58718
   103	 19.6331	 38.2886	 17.8475	-3.39819	-4.86848	 4.59753
   104	 18.8803	 35.6408	 20.2726	-15.2984	 9.65153	-0.844167
   105	 19.7055	  39.926	 19.9935	-3.79146	-0.872939	 9.13434
   106	 20.2077	 37.3213	 22.1197	-12.0087	  3.4421	 12.6921
   107	 17.7397	 38.4546	 21.3473	 8.71578	 14.3505	-26.1401
   108	 21.2959	 36.6473	 19.0741	 3.59431	-5.51961	-1.62606
   109	 22.3707	 32.2657	0.501285	 1.27536	-0.443135	 1.22409
   110	  23.702	 32.6969	0.760774	0.0764242	 0.55597	 -2.1915
   111	 24.7886	 31.8173	0.421257	-1.34547	 3.63702	-3.37756
   112	 24.5115	 30.4366	0.614089	  1.8205	0.945391	 1.32477
   113	 23.1859	 29.9434	 0.59454	0.951146	-2.05559	-4.85296
   114	 22.1307	 30.9179	0.777163	-1.44352	0.721109	-4.85131
   115	 23.7537	 32.9546	 1.85996	 2.54465	-10.6722	 8.73082
   116	 21.3585	 30.6242	 1.49423	-2.89667	-10.6914	 17.2182
   117	 25.1259	 32.0379	 39.3904	0.614404	-1.40896	 7.40806
   118	 22.9741	 29.2041	 39.8101	-1.94741	-1.14602	 5.91698
   119	 25.0147	  30.138	 1.54883	-5.55148	-2.54529	0.612416
   120	 22.0933	 32.4826	 39.4311	 10.9078	 9.61362	-6.26636
   121	 24.2559	 2.22611	 13.0412	 0.21429	-3.35255	-1.88761
   122	 23.0479	  2.8937	 12.6273	 2.74737	-2.13248	-0.698292
   123	 21.9863	 1.99397	 12.2806	-1.25744	0.876063	0.715281
   124	 22.2236	   0.612	 11.9693	-0.392336	-0.106008	 2.13952
   125	 23.5595	0.267323	 11.7934	  3.0172	-0.636142	0.0177026
   126	  24.657	  1.0341	 12.3396	 4.09655	 5.21777	 3.38987
   127	 23.2738	 3.72741	 12.0054	-3.34794	-12.5051	 10.2579
   128	 25.3552	 1.27752	 11.4983	-7.50569	-2.47267	 5.79077
   129	 21.0087	 2.37916	 12.0656	-13.1271	 10.7813	-10.3909
   130	 23.7621	 39.9045	 10.7713	  4.1345	  6.8083	  2.6608
   131	 21.7282	 39.9521	 12.7424	-0.375501	 4.49244	 3.40348
   132	 24.2774	 2.22152	  14.114	-15.5093	-6.30556	-2.65281
   133	 14.4393	 21.2822	 28.5171	0.0946555	 2.42915	-0.741641
   134	  13.854	 21.1876	 27.2582	0.156911	-0.378411	0.527385
   135	 13.7849	 19.9547	 26.5321	-2.50357	-1.16828	  0.8586
   136	 14.1439	 18.7769	 27.2977	-2.46292	 -1.5139	0.444833
   137	 14.9489	 18.8621	 28.4709	-0.377802	 2.86182	-2.03991
   138	 14.6848	 20.0694	 29.1939	0.926794	-0.228684	0.380302
   139	  12.888	 21.6987	 27.1944	0.943254	 5.13829	-10.1657
   140	 14.0943	 19.9169	 30.1334	-6.17347	-4.97835	 1.64192
   141	 14.3124	 19.9404	 25.5407	 20.8606	-4.56968	-1.68665
   142	 16.0035	 18.7331	 28.1018	-0.695438	 -13.391	-12.5986
   143	  13.371	 18.0409	 27.2377	-7.10613	-4.78897	 -6.3581
   144	 15.2646	  21.988	 28.5092	 7.42335	-17.3543	-8.79581
   145	 12.8729	 31.6139	 16.7721	 0.10863	  1.9147	 2.88461
   146	 14.1626	 32.1751	 17.0378	 2.04017	 1.41312	  -1.256
   147	  14.828	 32.7284	 15.8844	-1.98055	 1.37433	-4.65674
   148	 14.1297	 33.2145	 14.7792	-0.207677	-3.45376	-0.339354
   149	 12.6967	 33.0359	 14.7495	-4.86629	-2.05049	-5.98439
   150	 12.1099	 32.0698	 15.6556	 1.60819	-1.54154	-2.31752
   151	 14.2448	 32.7875	 17.8923	 -8.2939	  3.2762	-3.60568
   152	 11.0581	 32.2232	 15.8773	-3.97232	 10.2703	-27.5353
   153	 15.5409	 33.4324	 16.2286	 -14.872	 2.04581	 4.51804
   154	 12.0984	  33.991	 14.7906	 16.3937	 10.1722	 4.85253
   155	 14.5061	 33.0348	 13.7982	  3.8156	-16.1632	 3.49881
   156	 12.9483	 30.5298	 16.8599	 7.77547	-3.63733	-3.89559
   157	 39.4077	 26.0077	 7.97106	  2.3213	 2.73466	  5.6523
   158	0.611237	  25.288	 8.20896	-0.715923	-1.15492	 3.74244
   159	 1.78775	 25.5391	 7.39563	-0.749944	 1.67454	-3.70443
   160	 1.63686	 26.4414	 6.28122	-5.14052	 1.57824	 -1.7371
   161	0.309588	 26.7234	 5.82247	 2.14048	-1.61751	 6.50703
   162	 39.1691	 26.2717	 6.56896	  2.7972	-3.48036	-4.28706
   163	0.746953	 24.8421	 9.17628	-4.02937	 8.87517	-28.3282
   164	 38.6032	 25.4462	 6.06336	-1.99413	  15.087	0.760932
   165	 2.37568	 24.6938	 7.09443	0.654278	 -20.268	-16.2235
   166	0.183484	 27.1449	 4.86403	 1.74017	-0.557926	 12.5262
   167	 2.12024	 27.3709	 6.60652	 7.31681	 6.30791	 4.90285
   168	 39.4468	 27.0161	 8.45389	-2.43773	-12.6725	-2.49438
   169	 8.49563	 37.3993	 33.6179	-0.831289	0.850837	 -1.0024
   170	 9.48055	 37.1522	 32.6806	-1.33042	 5.09753	 2.10768
   171	 10.2213	 35.9147	 32.5946	-0.952084	-2.58658	-0.409711
   172	 10.5459	 35.4117	 33.8361	 2.98114	0.919437	 4.75503
   173	 9.88216	 36.0597	 34.9412	-3.97963	-0.514384	-4.94061
   174	 8.57382	 36.5855	  34.815	-2.94855	 3.45423	 4.04112
   175	 9.75137	 37.7896	 31.8834	 -19.829	  7.0737	 8.09216
   176	 7.86004	 35.7845	 34.6627	 17.4309	-1.27146	-15.6997
   177	 9.59195	 35.1937	 31.9982	-14.2316	-9.77469	-1.41606
   178	 10.5656	 36.8543	 35.3269	 5.61382	-12.3832	  5.2645
   179	 11.2608	 34.6622	 34.0355	 13.2264	-8.92386	-10.6201
   180	 8.26373	 38.4077	 33.9339	-5.58833	-14.1068	-19.7316
   181	 26.6191	 6.80549	 32.3492	0.602914	-2.73446	  3.0712
   182	 25.6372	 7.32792	 33.2793	-0.283316	 -3.4177	0.948239
   183	 24.8624	 6.41279	 34.0751	 2.92106	  2.6097	-1.28489
   184	 25.2739	 5.02355	 34.1092	-0.631201	0.059686	 3.56483
   185	  26.296	 4.59288	 33.2868	-4.64677	   1.377	-1.31733
   186	 27.0005	 5.45684	 32.3989	0.170468	     2.8	 -2.8783
   187	 25.9844	 8.18137	 33.9035	 8.80194	 -16.167	 11.7716
   188	 28.0925	 5.40066	 32.4309	 5.64091	 3.35834	-5.09183
   189	 23.8388	 6.65124	 34.1924	 8.23337	-1.37675	 4.33697
   190	  25.947	 3.71361	 32.6802	 3.51593	 16.8027	-4.63474
   191	 25.3532	 4.60211	 35.0804	-1.35536	-2.39119	-12.6417
   192	 26.6015	 7.32359	 31.3831	-0.0994766	0.831993	0.381923
   193	 28.3465	 34.7702	 2.39372	 0.75481	-1.71262	 -1.7428
   194	 27.1859	 35.4818	 2.05932	-1.72502	-1.61217	 2.90183
   195	 27.1463	 36.2283	0.818912	 2.27664	 3.61145	 6.44549
   196	 28.3078	 36.2173	 39.9898	-3.45796	0.079794	 -4.3237
   197	 29.2053	 35.0908	0.151332	-5.83575	 2.17523	0.968072
   198	 29.1302	 34.2867	 1.28695	-0.265914	 2.49984	 4.34737
   199	 26.3792	 35.5705	 2.73347	-24.2364	 -20.761	-30.3752
   200	 28.9617	 33.2118	 1.12757	-14.9172	 30.4064	-11.0838
   201	 26.2679	 35.9758	0.165536	 3.43879	 -1.5956	 -7.4706
   202	 29.7931	 34.8819	 39.3048	-33.9624	-13.8888	 22.2312
   203	 28.7968	  37.221	0.159882	-0.109051	-9.50284	 14.0881
   204	 28.9431	 35.2083	  3.1915	 11.3507	  8.7876	 19.9272
   205	 27.5046	 7.04415	 38.4728	0.0730622	-3.17678	-2.56119
   206	 28.5517	 7.91415	 38.4074	 -1.6097	-0.710683	-2.47562
   207	 29.0494	 8.60873	 39.5724	 2.31879	0.247663	  3.2531
   208	 28.5552	 8.19279	0.809189	-2.08863	-1.36791	-4.60688
   209	 27.4901	 7.23687	0.947564	-0.0806399	 1.24735	 1.20145
   210	  27.176	 6.51267	 39.7529	0.0214713	 4.32664	-0.144402
   211	 29.3647	 7.84026	 37.7124	-3.62581	 9.13259	 9.81662
   212	 27.5304	 5.46004	 39.8654	 5.12434	 4.45349	0.542548
   213	 28.9535	 9.70406	 39.4908	 2.68653	 9.48122	 3.40174
   214	 26.6212	 7.76676	 1.30096	-10.0334	-0.542264	 9.29008
   215	 29.3164	 8.04557	  1.5794	 2.41414	 -17.848	-8.43079
   216	 26.6316	 7.46003	 37.9009	 1.31141	-0.601746	0.376822
   217	 21.0304	 8.84382	 36.0213	 -0.1077	 4.85883	-5.89754
   218	 20.1439	 7.71563	 36.2216	0.933546	 2.28188	-2.74868
   219	 19.0694	 7.57609	 35.3275	0.122695	 2.06409	-1.13213
   220	   18.54	 8.63109	  34.553	 2.99846	0.327532	-1.26019
   221	 19.2973	 9.82889	   34.59	 1.60086	-3.80946	-0.756721
   222	 20.4638	  10.003	 35.4143	-2.24712	-1.35834	 1.80237
   223	 19.7824	 7.78543	 37.2209	-0.548937	-2.27919	 6.76954
   224	 20.1867	 10.7572	 36.1764	0.582981	-2.57908	-0.103197
   225	 18.8597	  6.6243	 34.9374	-12.8968	 8.79535	 1.85504
   226	 19.4868	 10.1605	 33.5327	 2.31651	-2.95567	 10.1756
   227	 17.5122	 8.87501	 34.7424	 8.74115	-4.06576	-16.4488
   228	 22.0057	 8.50623	 35.7396	-4.31492	-9.71266	-9.86123
   229	0.757599	 25.4901	 17.7369	 1.21888	 0.92978	 4.21787
   230	 39.4376	 25.2576	 17.3715	-1.13276	 2.74548	-1.27252
   231	  38.854	  26.095	 16.3645	-1.01201	-0.370536	0.744633
   232	 39.5044	 27.2725	 15.9593	-2.31818	0.508162	-2.34424
   233	0.872799	 27.5177	 16.2939	0.157233	-0.410239	0.935007
   234	 1.55404	 26.5072	 17.0795	 4.02117	 2.54642	-1.04792
   235	 38.8024	 24.7696	 18.0534	-4.89173	 6.84289	 6.92668
   236	 2.40246	 26.1421	 16.5766	 5.73326	-6.68731	-7.41346
   237	   38.37	 25.5504	  15.583	  1.9643	-8.68175	-22.2298
   238	  1.0324	 28.5239	 16.6664	-3.23734	-4.76744	 12.9128
   239	 39.1537	 27.6873	 14.9909	-6.78489	 3.34273	 -1.5269
   240	0.943976	 25.4619	  18.832	-11.9981	-2.33842	-5.37663
   241	 37.7019	 12.2713	 27.7583	-3.49548	-2.43626	-0.66482
   242	  38.083	 11.6711	 28.9827	 1.89718	0.407852	-6.78305
   243	 39.3925	 11.1545	 29.1827	 2.87203	-0.594624	 1.17105
   244	0.394447	 11.8445	 28.4197	 0.25518	-6.00963	-0.433816
   245	0.104846	  12.511	 27.1888	-5.11072	0.732352	-0.633337
   246	   38.71	 12.6972	 26.8799	0.950994	0.0931399	 2.13068
   247	 37.8182	 12.3609	 29.8267	-2.66728	 1.20514	 8.84776
   248	 38.5171	 12.5974	 25.7977	 3.13917	-1.53055	 7.14425
   249	 39.5374	 10.1001	  29.118	-6.16292	 2.61938	 12.0971
   250	0.702188	 12.1554	 26.3537	 3.77702	-9.01599	-4.07631
   251	0.933785	  12.491	 29.0833	0.944734	 7.78488	 10.7546
   252	 36.9398	 13.0089	 27.8832	-1.38637	 9.09386	-5.40005
   253	 19.3364	 16.9185	 12.5181	 -1.7326	-1.88495	-1.23585
   254	 19.8784	 17.2967	 11.2466	  1.1921	-1.57342	-1.70933
   255	  21.309	 17.2451	 11.0827	-0.132335	-1.86762	-1.28178
   256	 22.0952	 17.3508	 12.2769	-1.02158	-2.90172	-1.02042
   257	 21.4906	 17.1905	  13.565	-1.15159	-0.521803	 5.45416
   258	 20.2345	 16.5792	 13.5881	 1.76682	 3.07246	-0.851502
   259	 19.5228	 18.3323	 11.0149	-12.2721	 14.0091	-6.75053
   260	 20.1791	 15.4818	 13.6873	-4.52118	 1.73389	 5.93238
   261	 21.5705	 16.3744	 10.4449	-22.3174	 2.16223	 11.3067
   262	 21.7591	 17.8559	 14.3431	0.632139	 3.16396	 4.64133
   263	 23.0174	 16.8373	 12.1767	 17.3417	 7.14475	-13.9188
   264	 18.4845	 17.5495	 12.8821	-14.7998	 16.7924	   3.852
   265	 11.9474	 14.0957	 24.0825	 1.65893	-1.29379	-3.37979
   266	 11.8514	 14.4244	    22.7	-1.77504	-5.85594	-0.915884
   267	 12.3215	 15.6621	 22.1815	-1.15959	0.843643	 1.32635
   268	 12.7074	 16.6177	 23.1321	-0.50502	-1.17813	 5.74406
   269	 13.0346	 16.2917	 24.4397	0.012484	0.514284	-0.930986
   270	 12.5817	 15.0867	 24.9114	-1.83029	-1.84157	-3.42683
   271	 12.3911	 13.6043	 22.1409	 11.7087	-14.0847	 -10.179
   272	 13.3808	 14.5574	 25.5075	  20.139	-12.0004	-7.64844
   273	 13.1804	 15.4237	 21.5374	-2.25404	 15.2344	  8.0991
   274	 13.8978	 16.7113	  24.904	-5.81944	 15.2101	-18.1717
   275	 12.3442	 17.5756	 22.8504	-16.7849	 17.0862	 1.28422
   276	 11.0609	 13.6441	 24.4577	-13.1564	-15.6617	 13.0279
   277	 3.11009	 35.2966	  20.388	-1.82687	 1.58644	-0.355951
   278	 4.23461	 34.5067	 20.1878	 3.19071	-5.97887	-2.73439
   279	 5.51228	 35.0478	 20.5143	 1.25354	 6.00774	 3.81575
   280	 5.58363	 36.2196	 21.3312	-1.07136	-2.24049	-0.38211
   281	 4.40737	  37.031	 21.4927	0.490106	-2.04479	0.139885
   282	 3.12017	 36.5709	 21.0825	-0.00718951	-2.57829	-2.16135
   283	 4.20222	 33.4502	 20.5683	-3.41038	-3.66178	 9.91563
   284	 2.54636	 37.2982	 20.5415	-18.1195	-3.63695	-5.95826
   285	 6.19531	 35.0335	 19.6672	 5.15657	-25.6156	  15.971
   286	 4.42514	 37.4556	 22.5349	  4.8449	 3.21497	-5.16312
   287	 5.86486	 35.9095	 22.3752	 -2.8236	-18.1717	 6.13555
   288	 2.23843	 35.1433	 19.8196	 9.96881	 12.6292	-10.3624
   289	 25.3171	 3.58757	 28.3329	-2.69949	-2.69551	-0.91159
   290	 24.7593	 2.72079	 27.4072	 2.40168	0.906692	 -2.2287
   291	  25.549	 2.36016	 26.2446	 2.56013	 1.91937	-2.39672
   292	 26.3123	 3.41745	  25.713	-0.105159	-1.03389	 1.66978
   293	 26.9348	 4.32932	 26.5984	-1.18717	-0.801725	-2.95061
   294	 26.3124	 4.49785	 27.8883	 2.05429	-0.79806	 2.08068
   295	 23.8305	 3.13736	 27.0283	 5.21455	-5.42215	-12.7073
   296	 26.1886	 5.52779	 28.0849	-4.06016	-11.7154	-5.06834
   297	 26.1781	 1.44715	 26.3732	 7.92895	-5.73836	 4.03941
   298	 28.0049	 4.00942	  26.767	 3.27093	-8.93581	 8.34505
   299	 25.7478	  3.9545	 24.9745	-4.19271	-7.11793	-16.8102
   300	 25.6265	 3.04154	 29.2134	 8.95369	 11.8003	 4.37739
   301	 19.3188	 32.6147	 9.06675	-2.76838	-3.13562	0.330166
   302	 20.6686	 32.1431	  9.0275	-1.14022	-1.49108	 2.43472
   303	  21.543	 32.7664	 8.05193	 2.15585	 2.88779	-0.601149
   304	 21.0397	 33.6237	 7.04183	-0.68642	 0.87288	0.888753
   305	 19.7997	 34.2441	 7.35608	-3.78295	-1.61034	 3.73298
   306	 18.8862	 33.6749	 8.23963	 2.74343	0.785383	 -1.6777
   307	 20.8689	 31.0961	 9.16049	 2.69778	 3.72427	-7.06863
   308	 17.9586	 33.4139	  7.7896	-9.69788	-2.48156	 -5.5544
   309	  22.364	 33.3062	  8.5732	 14.8878	 7.69605	 2.05918
   310	 19.9268	 35.3042	 7.48975	 3.30106	-4.50947	 7.05559
   311	  20.984	 33.1434	 6.08876	 4.12624	-3.74675	 6.40521
   312	 18.8857	 32.5912	 10.0852	 6.92669	  3.8519	-7.75379
   313	 33.2582	 19.0137	 16.2033	 2.34928	 2.21537	-4.54127
   314	 33.5861	 20.0655	 15.3179	-1.54341	-3.74653	 3.68606
   315	 34.5129	 21.0657	 15.7753	-5.48624	-1.71107	 1.06241
   316	  35.407	 20.7078	 16.8559	 9.13133	 3.92307	-0.567076
   317	 35.2063	 19.4664	 17.5599	 3.89061	 2.57318	-4.45994
   318	 33.8957	 18.8617	 17.4448	-1.64116	-0.959803	-2.87287
   319	 33.9554	 19.7331	 14.3191	0.256936	-12.6112	-10.4379
   320	 33.3206	 18.8678	 18.3393	 19.3387	 14.4437	-25.7508
   321	 33.9598	 21.9226	 16.1242	-9.07959	-7.34962	-10.6832
   322	 35.9139	 18.6411	 17.3218	-28.3589	 2.87757	 20.5197
   323	 36.3424	 21.1979	 16.8909	-11.9562	-16.8191	-5.57521
   324	 32.4515	 18.3432	 15.9327	-20.6013	-11.5716	  13.863
   325	 4.61803	 3.99201	 1.33656	-0.837832	-0.760248	-0.029032
   326	 3.20006	 4.28377	 1.42202	-0.269996	-3.39228	 1.24933
   327	 2.46928	 3.58504	 2.43369	-1.48386	 -1.2363	 1.47545
   328	 3.17491	 2.91898	 3.49577	-1.65282	0.295578	 -3.5963
   329	 4.51766	 2.72485	 3.35469	 1.16056	-6.19297	 1.21109
   330	 5.29715	 3.56153	 2.51917	-1.76997	 1.68974	  0.4815
   331	 2.97374	 5.33413	 1.23758	  2.0784	 13.4113	-7.85781
   332	 5.52933	 4.46156	 3.13467	-1.24144	 6.09879	-12.8847
   333	 1.68317	 2.87921	 2.04848	-0.324453	 5.23636	 13.6715
   334	 4.80482	 1.68112	 3.37433	 6.41725	-5.00046	-2.55528
   335	 2.89293	 3.31227	 4.47032	-13.0837	 4.82525	 1.21417
   336	 4.77737	 3.34595	0.465324	-3.99286	 15.3188	 23.6899
   337	 6.06218	 9.52238	 4.32757	 0.14544	0.523474	0.282644
   338	 5.15991	    9.82	 5.40048	-0.907805	0.845446	 1.91489
   339	 5.20236	 9.01166	 6.59394	-3.34948	-0.479792	 1.54755
   340	 6.10009	 7.93722	 6.69554	-0.607149	 2.40399	-0.686976
   341	 6.81553	 7.55578	 5.52459	 2.77474	 2.06616	-0.116474
   342	 6.89271	 8.40933	   4.381	 2.09878	  2.0993	-1.68647
   343	 4.17355	 9.86447	 5.04151	-3.45956	-3.14447	 4.47388
   344	 7.05377	 7.82402	 3.42751	-3.49137	-11.1741	-7.55571
   345	 4.23403	 8.93259	 7.09438	-9.19746	-4.82731	-10.0108
   346	 7.80172	 7.19446	 5.87484	 9.66497	-5.05262	-14.0721
   347	 6.68883	 7.86182	 7.64509	-1.59326	-9.67267	-13.2914
   348	 6.69929	 10.4224	 4.19134	 9.01444	-5.64591	-8.50599
   349	 29.4811	 23.9802	  26.639	-3.13359	 2.01031	 1.77848
   350	 29.5122	 23.7607	 28.0617	-2.32133	-3.19443	0.899514
   351	 30.5312	 24.3764	 28.8654	-1.13831	 0.60076	-0.611531
   352	 31.7975	 24.4603	 28.1659	-3.98384	 3.24952	-4.00964
   353	 31.8364	 24.7316	 26.7938	 3.01365	 0.81311	0.822398
   354	 30.6163	 24.6603	 26.0444	-2.75843	 1.17429	 1.40861
   355	 29.4324	 22.6545	  28.183	  10.501	 14.0306	 3.25069
   356	 30.3286	 25.6202	 25.6139	 13.5207	-13.3417	 11.8726
   357	 30.1961	  25.421	  28.994	-8.07636	-6.33064	 4.89588
   358	 32.6909	 24.2779	 26.3382	 6.79131	 -8.4099	0.301747
   359	 32.5843	  23.833	 28.5563	-7.16905	-2.88574	 6.04566
   360	 28.6126	   24.34	 26.1668	-10.4732	  -13.39	-0.094525
   361	 15.0201	 14.6374	 38.2348	0.289301	-4.12623	0.931551
   362	  15.847	 13.6586	 38.7794	0.968567	 1.78337	-1.89346
   363	 15.4617	  12.298	 38.5507	 2.31286	-2.74948	 1.22175
   364	 14.1785	 11.9557	  38.206	-0.260171	-0.806998	-1.14047
   365	 13.4176	 12.9635	 37.5092	 4.27126	0.340967	-0.0754718
   366	 13.6475	 14.3432	 37.8981	 1.55227	 1.56425	 1.04359
   367	 16.2608	 13.8899	 39.8016	 6.07566	-8.76166	 33.0167
   368	 12.9249	 14.6618	 38.6147	 5.86719	 5.27137	-0.953479
   369	 16.2634	 11.6679	  38.184	 -12.393	-8.14375	-21.9207
   370	 13.6068	 12.7991	 36.4527	 10.3357	 11.7592	 3.55059
   371	 13.6409	 11.1592	 38.6535	-2.11335	-4.21077	 6.68329
   372	 15.5124	 15.2117	 37.4938	 3.02567	-13.6392	-5.84488
   373	 39.5421	 30.7295	0.784095	 1.02971	 1.14448	 1.59866
   374	 38.5196	 29.8095	 1.14462	-1.80804	-0.0794711	-0.453123
   375	 37.2094	 30.2095	0.972422	 2.25696	-0.110679	 0.64794
   376	 36.8307	 31.6083	0.928264	 1.49941	0.257317	-1.04082
   377	 37.9242	 32.5334	0.701254	0.945875	0.186722	-0.112293
   378	 39.2853	 32.1051	0.888671	0.375128	-2.60332	-0.301177
   379	 38.7726	 29.2524	 2.05493	-17.0209	 3.19666	 8.35698
   380	 39.6296	 32.6216	  1.7974	-7.90443	-8.73632	-1.92271
   381	 36.5774	 29.5249	0.460035	 2.99845	-9.61626	 -11.489
   382	 37.8973	 33.0657	 39.7497	 9.37017	-12.7323	 6.50676
   383	 36.3101	  31.805	 1.89619	 10.7163	  2.0115	 12.0903
   384	0.249642	 30.3561	0.0540424	 1.24076	 12.7787	 3.37065
   385	 25.9128	 28.3797	 14.4912	 2.19504	   3.444	 1.17793
   386	 27.0266	 29.1329	 14.2547	0.195674	 1.10395	-2.83817
   387	 26.8546	 30.4051	   13.59	  -1.083	-1.32241	-0.111879
   388	 25.5991	 31.0551	 13.6096	-1.06955	-3.69655	0.402511
   389	 24.4812	 30.3096	 14.0863	-0.0803538	 2.74194	-0.987148
   390	 24.5978	 28.9247	 14.4015	-2.08622	-5.70908	 1.11123
   391	 27.7295	 29.2743	 15.0635	-2.37681	  6.0642	 3.55148
   392	 23.9574	 28.2895	 13.7197	-9.74853	-16.4373	-20.8379
   393	  27.419	 30.5164	 12.6811	-2.29435	-0.590958	-1.42226
   394	 24.0208	 30.8361	 14.9106	-5.14549	-6.43946	-13.7456
   395	 25.4262	 31.7663	 12.8228	-5.90631	-13.3076	-2.90325
   396	 25.9269	 27.3778	 14.1251	-1.63152	 3.73907	  3.2149
   397	 10.4149	 36.4816	 21.6168	-0.315185	-5.61975	-1.85248
   398	 9.43962	 36.3931	  22.643	-0.257835	  1.2483	-2.00134
   399	 8.48221	  37.389	 22.9309	-1.68087	-0.103081	  1.3713
   400	 8.52376	 38.5432	 22.1138	-1.70824	0.0422514	-5.63443
   401	 9.55554	 38.7882	 21.1601	-1.45684	 3.26829	 1.69148
   402	 10.3622	 37.6287	 20.8585	 3.65452	 2.46228	 1.51612
   403	 8.97557	 35.3991	 22.7359	 4.21411	 2.49491	 3.30925
   404	 10.4139	 37.5033	 19.7463	 11.5613	 2.11562	 9.83017
   405	 8.65702	 37.7037	 23.9748	 7.28642	-8.80388	0.732736
   406	 10.0042	 39.7426	 21.1636	 1.78607	0.627527	-15.9265
   407	 7.61025	 39.0539	  21.923	 3.53447	-10.8123	-3.40592
   408	 11.4131	 36.3099	 22.0082	 5.83278	 7.12778	-4.14856
   409	 31.2212	 1.18517	 12.5833	  2.4588	0.737016	-0.162875
   410	 29.9456	0.733735	 13.0251	0.478315	 3.66299	 1.26764
   411	 29.1566	 1.54598	  13.871	0.726587	-1.22509	 1.70078
   412	 29.7671	 2.68049	 14.4589	0.919134	 1.23193	  2.9133
   413	 31.1798	 2.94763	 14.2696	-4.10153	0.385377	 -2.6338
   414	 31.8439	 2.26724	 13.3061	-2.15574	0.751445	 1.56066
   415	 29.4126	0.350693	 12.1838	  2.8072	 -6.1193	-11.5399
   416	 32.8681	 2.04767	 13.4305	 14.6246	  -7.967	-18.6774
   417	 28.6408	 0.92296	 14.6262	 10.4321	 8.02226	 4.37615
   418	 31.4135	 3.97173	 14.5184	 1.94905	 8.43749	 9.97057
   419	 29.1366	  3.5558	 14.2935	  5.7372	-1.07866	-1.72837
   420	 31.9936	0.395224	 12.5206	  1.6802	-10.5882	 9.78316
   421	 9.92526	  32.007	 11.6991	 2.81014	 2.06339	-3.41984
   422	 9.54024	 30.9054	 12.5544	-1.34597	-2.52375	 2.17309
   423	 10.4754	 29.8161	  12.596	0.238781	-4.36858	 1.91018
   424	 10.9222	 29.3744	 11.3178	-1.57376	-5.04219	-2.83138
   425	 11.1922	 30.3823	 10.3532	0.650175	0.199559	0.126033
   426	 10.7549	 31.7256	 10.5535	 4.01095	0.766077	0.504862
   427	 8.54661	 30.5995	  12.176	 9.54928	-10.9064	 5.35731
   428	 10.3458	 32.0687	 9.59081	-0.878344	 6.09979	 3.47194
   429	 11.3052	 30.0342	 13.3126	 10.2066	 3.01902	 -7.0824
   430	 12.2814	 30.3366	 10.0887	-11.2616	 8.67357	-9.34402
   431	 10.7592	 28.3651	 11.0101	0.0354807	 7.63447	 8.73401
   432	 10.4755	 32.7328	 12.3179	 8.67982	-5.09188	-18.4532
   433	 28.0377	 27.4554	 5.82814	-0.105881	 1.89735	 -4.2837
   434	 29.0891	 27.6527	 6.72216	  2.4355	-0.981089	-0.805591
   435	 29.7627	 26.4809	 7.22965	-3.40353	-0.310891	0.0731609
   436	 28.9761	 25.3613	 7.43745	-0.763627	-0.881941	0.485528
   437	 27.7807	 25.1745	 6.64417	-0.301681	-4.35069	-1.97596
   438	 27.1697	 26.3157	 6.05047	 1.33007	 2.57249	  3.3842
   439	 29.3336	  28.598	 7.11513	-17.4395	-7.89551	-11.6028
   440	 26.1837	  26.519	 6.43368	-11.8196	 -4.3586	-4.95513
   441	 30.7943	 26.3726	 6.87081	 1.75945	 13.6383	  9.1351
   442	 27.9341	 24.4632	 5.78067	 11.0568	 8.27284	 -3.8634
   443	  28.824	 25.1184	 8.45605	-6.09227	-0.333332	-6.12796
   444	 27.9104	 28.0524	 4.97365	 -8.0502	 2.03658	-17.9577
   445	 17.3924	 19.0816	 22.0754	 1.23761	-3.35957	 3.13837
   446	 16.1492	 19.1245	 22.7261	 1.70255	 1.53295	-3.40624
   447	  15.044	 19.0717	 21.8015	0.218884	 1.64055	-4.92368
   448	 15.0718	 18.3437	 20.6202	-0.369803	-0.518426	-0.283021
   449	 16.3877	 18.2501	  20.075	 3.04617	 -1.8312	 1.03094
   450	 17.4557	 18.9547	 20.7311	-1.37144	-0.196333	 2.71822
   451	 15.9352	 18.5996	 23.6203	 13.2374	-3.45399	0.346382
   452	 17.6039	 19.8847	 20.1247	-8.96858	 4.00232	 -11.409
   453	 14.5876	 20.0628	 21.8098	 4.10064	0.187372	-12.0067
   454	 16.7606	 17.2101	 19.9139	 6.19413	 21.2133	-13.8063
   455	 14.2656	 18.2779	 19.9364	 8.82048	-15.6388	-7.86149
   456	 18.3138	 18.9645	 22.5997	 9.35191	 6.91626	 4.84702
   457	 15.1254	 20.0786	 15.0895	 1.58546	 1.39132	0.828902
   458	 16.0206	 19.9181	 14.0199	0.696325	 1.06724	 1.76676
   459	 15.4659	 19.6681	 12.7216	-1.77927	0.735115	   1.835
   460	 14.0906	  19.966	 12.4548	0.325036	 2.20196	 1.17796
   461	 13.2735	  20.199	   13.52	-3.19512	-1.00686	 1.54656
   462	 13.7858	 20.3975	 14.8441	-2.47497	 0.89326	-0.219288
   463	 16.6343	 20.8203	 13.9567	 3.10501	 17.7277	 12.9936
   464	  13.527	  21.309	 15.3723	 9.48917	-21.5312	-14.2038
   465	 15.7123	 18.6667	 12.2926	 10.6782	 4.33314	0.646531
   466	 12.2973	 19.6943	 13.4534	-3.27442	-11.1237	 2.25836
   467	 13.9334	 20.5183	 11.5083	 -2.7059	 6.94782	-11.2244
   468	 15.3527	 19.4977	 15.9594	-4.21739	 11.4612	-6.84133
   469	 16.2794	 24.1597	 39.7523	-3.50863	-0.290529	-1.36298
   470	 16.6717	 24.6582	 38.4592	0.375571	-0.40059	-1.99439
   471	 17.6389	 23.9161	 37.7334	-3.55485	 2.12663	 1.81826
   472	 18.4615	  22.934	 38.3808	 2.30572	 1.13555	-1.89332
   473	 17.8359	 22.3199	 39.5374	 2.70464	 4.63848	0.183194
   474	 16.8201	 22.9741	0.250088	-3.22019	-0.693786	-0.0768163
   475	 17.0139	 25.6701	 38.5691	 12.6453	0.584205	-3.91425
   476	  17.055	 23.0174	 1.29302	-11.2169	 4.12099	-4.82071
   477	 17.5273	 23.8293	 36.6512	 9.68441	-18.8509	 6.69286
   478	 17.7952	 21.2402	 39.3975	-10.4476	 6.91586	-3.39683
   479	 19.4861	 23.1851	 38.4928	 -2.0671	-10.5462	 8.40387
   480	 15.1965	 24.2045	 39.8353	-2.26623	 7.51392	-4.46342
   481	 34.0793	 30.0873	 10.4373	 -1.4328	-4.96971	 2.47955
   482	 33.2096	 29.6235	 9.40542	-1.30689	 1.80639	-1.23906
   483	 31.9496	 30.1873	 9.19052	-0.522855	 -3.1621	-1.43346
   484	 31.5861	 31.3114	 9.96655	-2.38483	-0.00809841	-2.69072
   485	 32.4525	 31.9038	 10.9128	 5.55938	 1.10635	-0.271833
   486	 33.7996	 31.4187	 10.9138	 1.62662	 2.24718	-2.18397
   487	 33.7077	 29.2498	 8.47343	-7.45674	 19.0924	-11.6632