ITEM: TIMESTEP
0
ITEM: NUMBER OF ATOMS
240
ITEM: BOX BOUNDS
0	40
0	40
0	40
ITEM: ATOMS index type x y z
     1	1	  22.847	   1.764	  35.714
     2	1	  23.185	   2.208	  34.435
     3	1	  22.595	   3.361	  33.919
     4	1	  21.668	   4.071	  34.683
     5	1	  21.331	   3.628	  35.962
     6	1	  21.922	   2.474	  36.477
     7	1	  23.907	   1.655	   33.84
     8	1	  21.659	   2.128	  37.473
     9	1	  22.857	   3.707	  32.924
    10	1	  20.609	   4.182	  36.555
    11	1	  21.208	    4.97	  34.281
    12	1	  23.308	   0.865	  36.116
    13	1	  30.713	  26.718	   2.754
    14	1	  29.674	   27.38	     2.1
    15	1	  29.848	  28.695	    1.67
    16	1	  31.061	  29.347	   1.892
    17	1	    32.1	  28.684	   2.546
    18	1	  31.925	  27.369	   2.976
    19	1	  28.729	  26.872	   1.927
    20	1	  32.734	  26.853	   3.486
    21	1	  29.039	  29.212	   1.161
    22	1	  33.044	  29.193	   2.719
    23	1	  31.197	  30.371	   1.557
    24	1	  30.577	  25.692	    3.09
    25	1	  35.404	    8.97	   8.252
    26	1	  35.643	   8.264	   7.072
    27	1	  36.556	   7.211	   7.063
    28	1	   37.23	   6.862	   8.234
    29	1	   36.99	   7.566	   9.414
    30	1	  36.076	    8.62	   9.422
    31	1	  35.118	   8.537	    6.16
    32	1	   35.89	   9.169	  10.341
    33	1	  36.744	   6.662	   6.145
    34	1	  37.515	   7.294	  10.325
    35	1	  37.942	   6.041	   8.227
    36	1	  34.691	   9.791	   8.259
    37	1	  29.786	   7.555	  10.331
    38	1	  31.063	   7.015	  10.175
    39	1	   32.16	   7.859	  10.008
    40	1	  31.981	   9.242	   9.996
    41	1	  30.704	   9.782	  10.153
    42	1	  29.607	   8.937	  10.321
    43	1	  31.203	   5.937	  10.184
    44	1	  28.612	   9.358	  10.442
    45	1	  33.154	    7.44	   9.885
    46	1	  30.565	   10.86	  10.144
    47	1	  32.835	   9.901	   9.866
    48	1	   28.93	   6.897	  10.462
    49	1	  25.135	   36.53	   3.788
    50	1	  24.865	  35.236	    3.34
    51	1	  25.427	   34.78	   2.149
    52	1	   26.26	  35.616	   1.405
    53	1	   26.53	   36.91	   1.852
    54	1	  25.967	  37.366	   3.045
    55	1	  24.216	  34.584	    3.92
    56	1	  26.177	  38.373	   3.393
    57	1	  25.217	  33.773	     1.8
    58	1	  27.178	   37.56	   1.272
    59	1	  26.698	  35.261	   0.477
    60	1	  24.696	  36.886	   4.717
    61	1	  10.207	   5.485	   4.877
    62	1	  10.966	   4.688	   5.735
    63	1	  12.204	   5.138	    6.19
    64	1	  12.684	   6.385	   5.788
    65	1	  11.925	   7.182	   4.931
    66	1	  10.685	   6.731	   4.476
    67	1	  10.592	   3.717	   6.048
    68	1	  10.094	   7.351	   3.808
    69	1	  12.796	   4.519	   6.857
    70	1	  12.299	   8.153	   4.618
    71	1	  13.649	   6.737	   6.143
    72	1	   9.241	   5.134	   4.522
    73	1	  21.821	  19.802	   11.22
    74	1	  22.049	  20.852	   10.33
    75	1	  21.352	   22.05	  10.474
    76	1	  20.427	    22.2	  11.507
    77	1	  20.199	   21.15	  12.398
    78	1	  20.898	  19.951	  12.254
    79	1	   22.77	  20.735	   9.525
    80	1	   20.72	  19.133	  12.947
    81	1	  21.528	  22.868	   9.781
    82	1	  19.479	  21.267	  13.203
    83	1	  19.883	  23.133	   11.62
    84	1	  22.366	  18.867	  11.109
    85	1	  37.513	   5.234	  30.981
    86	1	  37.368	   4.927	  29.627
    87	1	   36.38	   5.558	  28.872
    88	1	  35.538	   6.496	   29.47
    89	1	  35.683	   6.803	  30.823
    90	1	  36.672	   6.172	  31.578
    91	1	  38.024	   4.196	  29.162
    92	1	  36.785	    6.41	  32.632
    93	1	  36.266	    5.32	  27.819
    94	1	  35.027	   7.534	  31.287
    95	1	  34.768	   6.988	  28.882
    96	1	  38.283	   4.742	   31.57
    97	1	  26.986	  10.391	  36.344
    98	1	  27.199	  11.271	  37.405
    99	1	  26.297	  12.308	  37.641
   100	1	  25.182	  12.464	  36.817
   101	1	  24.969	  11.583	  35.756
   102	1	  25.872	  10.546	  35.521
   103	1	  28.067	   11.15	  38.047
   104	1	  25.706	    9.86	  34.695
   105	1	  26.462	  12.995	  38.466
   106	1	  24.101	  11.705	  35.115
   107	1	  24.479	  13.272	      37
   108	1	  27.689	   9.582	   36.16
   109	1	  28.333	  20.782	  18.109
   110	1	  28.221	  20.131	  19.339
   111	1	  27.211	  20.494	  20.229
   112	1	  26.313	  21.506	  19.889
   113	1	  26.424	  22.156	   18.66
   114	1	  27.435	  21.792	   17.77
   115	1	  28.921	  19.343	  19.603
   116	1	  27.523	  22.299	  16.812
   117	1	  27.123	  19.989	  21.186
   118	1	  25.724	  22.944	  18.397
   119	1	  25.525	  21.789	  20.583
   120	1	  29.121	  20.499	  17.415
   121	1	  13.367	  26.701	   7.008
   122	1	  12.798	   25.61	   6.349
   123	1	  13.506	  24.414	   6.243
   124	1	  14.782	  24.307	   6.797
   125	1	   15.35	  25.396	   7.457
   126	1	  14.642	  26.594	   7.563
   127	1	  11.805	  25.694	   5.917
   128	1	  15.085	  27.443	   8.076
   129	1	  13.064	  23.565	    5.73
   130	1	  16.344	  25.312	   7.888
   131	1	  15.334	  23.374	   6.716
   132	1	  12.815	  27.634	   7.091
   133	1	  19.771	  31.222	  30.988
   134	1	  18.603	  30.479	  31.161
   135	1	  17.878	  30.586	  32.347
   136	1	  18.321	  31.436	   33.36
   137	1	  19.489	  32.179	  33.188
   138	1	  20.213	  32.072	      32
   139	1	  18.258	  29.816	  30.371
   140	1	  21.124	   32.65	  31.865
   141	1	  16.969	  30.008	  32.483
   142	1	  19.834	  32.841	  33.977
   143	1	  17.757	   31.52	  34.285
   144	1	  20.336	  31.138	  30.063
   145	1	  11.744	  30.014	   4.158
   146	1	  11.633	  31.173	    3.39
   147	1	  12.195	   31.22	   2.114
   148	1	  12.867	  30.108	   1.607
   149	1	  12.977	  28.949	   2.374
   150	1	  12.414	  28.902	    3.65
   151	1	   11.11	   32.04	   3.785
   152	1	  12.501	  27.999	   4.248
   153	1	   12.11	  32.123	   1.516
   154	1	  13.501	  28.083	   1.978
   155	1	  13.305	  30.144	   0.613
   156	1	  11.305	  29.977	   5.152
   157	1	   16.31	  10.171	  38.232
   158	1	  16.533	  11.524	  38.493
   159	1	  15.976	  12.495	  37.662
   160	1	  15.195	  12.114	  36.571
   161	1	   14.97	  10.762	   36.31
   162	1	  15.528	   9.791	  37.142
   163	1	  17.142	   11.82	  39.343
   164	1	  15.354	   8.738	  36.939
   165	1	   16.15	  13.548	  37.863
   166	1	  14.362	  10.466	   35.46
   167	1	   14.76	   12.87	  35.923
   168	1	  16.744	   9.414	   38.88
   169	1	  15.203	  25.746	   19.65
   170	1	  15.017	  25.489	  21.009
   171	1	  15.705	   26.24	  21.961
   172	1	  16.579	  27.249	  21.555
   173	1	  16.765	  27.507	  20.197
   174	1	  16.076	  26.755	  19.244
   175	1	  14.336	  24.703	  21.325
   176	1	  16.221	  26.955	  18.186
   177	1	  15.561	   26.04	  23.019
   178	1	  17.446	  28.292	  19.881
   179	1	  17.116	  27.835	  22.296
   180	1	  14.666	  25.161	  18.908
   181	1	  27.947	  21.946	  32.967
   182	1	  26.663	    21.4	   32.97
   183	1	  25.669	   21.96	  33.771
   184	1	  25.959	  23.067	  34.569
   185	1	  27.242	  23.614	  34.566
   186	1	  28.236	  23.053	  33.763
   187	1	  26.437	  20.537	  32.348
   188	1	  29.236	  23.478	  33.761
   189	1	  24.669	  21.535	  33.775
   190	1	  27.467	  24.476	  35.188
   191	1	  25.185	  23.504	  35.194
   192	1	  28.721	  21.509	  32.341
   193	1	  25.781	  26.441	   6.066
   194	1	   25.41	  26.502	    7.41
   195	1	  25.985	  27.456	   8.248
   196	1	   26.93	  28.349	   7.744
   197	1	    27.3	  28.289	     6.4
   198	1	  26.724	  27.335	   5.561
   199	1	  24.674	  25.806	   7.803
   200	1	  27.013	  27.287	   4.515
   201	1	  25.698	  27.503	   9.295
   202	1	  28.036	  28.985	   6.008
   203	1	  27.379	  29.093	   8.397
   204	1	  25.332	  25.698	   5.412
   205	1	  37.246	  36.929	  16.515
   206	1	  37.912	  37.894	  17.271
   207	1	  38.882	  37.508	  18.195
   208	1	  39.188	  36.158	  18.363
   209	1	  38.523	  35.192	  17.606
   210	1	  37.552	  35.579	  16.682
   211	1	  37.674	  38.947	   17.14
   212	1	  37.033	  34.827	  16.093
   213	1	  39.401	  38.259	  18.785
   214	1	  38.761	  34.141	  17.738
   215	1	  39.944	  35.856	  19.083
   216	1	   36.49	   37.23	  15.794
   217	1	   24.17	    2.47	  24.053
   218	1	  24.251	   2.011	  25.368
   219	1	    23.1	   1.935	  26.151
   220	1	  21.868	   2.315	  25.619
   221	1	  21.787	   2.773	  24.303
   222	1	  22.939	   2.849	  23.521
   223	1	  25.211	   1.715	  25.783
   224	1	  22.876	   3.206	  22.496
   225	1	  23.162	   1.579	  27.175
   226	1	  20.827	   3.069	   23.89
   227	1	   20.97	   2.256	  26.228
   228	1	  25.068	   2.529	  23.442
   229	1	  22.113	  20.079	  37.201
   230	1	  22.338	  21.453	  37.294
   231	1	  23.323	  21.941	  38.152
   232	1	  24.083	  21.056	  38.916
   233	1	  23.859	  19.682	  38.822
   234	1	  22.874	  19.194	  37.963
   235	1	  21.745	  22.143	  36.699
   236	1	  22.698	  18.124	  37.891
   237	1	  23.498	   23.01	  38.226
   238	1	  24.452	  18.993	  39.417
   239	1	  24.851	  21.435	  39.584
   240	1	  21.345	  19.699	  36.532
ITEM: TIMESTEP
0.248207
ITEM: NUMBER OF ATOMS
240
ITEM: BOX BOUNDS
0	40
0	40
0	40
ITEM: ATOMS index type x y z
     1	1	 22.7559	 1.76986	 35.6493
     2	1	 23.1666	 2.22983	 34.4617
     3	1	 22.4664	 3.32427	 33.9165
     4	1	 21.6014	 4.18285	 34.7041
     5	1	 21.2838	 3.67527	 35.8977
     6	1	 21.7995	 2.45753	 36.4016
     7	1	  24.238	 2.37339	 34.2596
     8	1	 21.9376	 2.40102	  37.466
     9	1	 23.0036	 3.92953	  33.138
    10	1	  20.436	 4.15306	 36.4972
    11	1	 20.8183	 4.61156	 34.1553
    12	1	 23.5096	 1.25512	 36.3041
    13	1	 30.7763	 26.6852	 2.69208
    14	1	 29.7504	 27.3058	 1.97751
    15	1	 29.9481	  28.665	 1.59677
    16	1	 31.0762	  29.346	  1.8589
    17	1	 32.1368	 28.6903	 2.50302
    18	1	 31.9596	 27.3686	 2.84871
    19	1	 28.7497	  27.021	 2.30843
    20	1	 32.7885	 27.0455	 3.49104
    21	1	 28.9375	  29.055	 1.45437
    22	1	 33.1782	 28.8102	 2.14506
    23	1	 31.2204	  30.357	 1.61688
    24	1	 30.4278	 25.8511	 3.22526
    25	1	 35.4519	  9.0197	 8.29265
    26	1	 35.8819	  8.3456	 7.06354
    27	1	 36.6492	 7.24507	 7.14133
    28	1	  37.307	 6.87478	 8.28503
    29	1	 37.0039	 7.57683	 9.50578
    30	1	 35.9616	 8.42802	 9.39679
    31	1	 35.3555	 8.59875	 6.19939
    32	1	  35.741	 9.11225	 10.2793
    33	1	 36.9466	 6.81271	 6.12738
    34	1	 37.5642	 7.22358	 10.3039
    35	1	 38.3957	 6.93193	 8.07597
    36	1	 34.4226	 9.29319	  8.2629
    37	1	 29.7153	 7.60218	 10.2517
    38	1	 31.0218	 7.02621	 10.1039
    39	1	 32.2053	 7.88631	 10.0777
    40	1	 32.0032	 9.23739	 9.99214
    41	1	 30.6554	 9.74737	 10.1023
    42	1	 29.5163	 9.00776	 10.0283
    43	1	  31.237	 6.02313	 10.4287
    44	1	  28.623	 9.37942	  10.553
    45	1	 33.0943	 7.37927	 9.65151
    46	1	 30.7079	   10.76	 9.82674
    47	1	 32.8346	 9.82761	 10.1774
    48	1	 28.8552	 6.97132	 10.2406
    49	1	 25.0875	 36.5552	 3.84343
    50	1	 24.8931	  35.237	 3.37056
    51	1	 25.4482	 34.7976	 2.12396
    52	1	 26.3282	 35.4913	 1.35271
    53	1	 26.5707	 36.8659	 1.81043
    54	1	 25.9034	 37.3367	 2.97061
    55	1	 23.9068	 34.8443	 3.42759
    56	1	   25.87	 38.4029	 2.95661
    57	1	  25.701	 33.7533	 2.27552
    58	1	 26.6931	 37.4778	0.983807
    59	1	 26.2814	 35.5482	0.300913
    60	1	 25.6215	 36.4278	 4.80668
    61	1	 10.2784	 5.50223	 4.69329
    62	1	 10.8279	 4.96784	 5.91595
    63	1	 12.2763	 5.00318	 6.13852
    64	1	 12.7615	 6.29171	 5.86673
    65	1	 12.0667	 7.04964	 4.90156
    66	1	 10.6493	 6.85706	 4.57693
    67	1	 10.2565	 4.15417	 6.38307
    68	1	 10.1299	 7.59702	 4.06764
    69	1	 12.3583	  4.6623	  7.1734
    70	1	 12.1822	 8.14832	 4.87545
    71	1	 13.8079	 6.39275	 6.06643
    72	1	 9.16088	 5.52259	 4.61299
    73	1	 21.8713	 19.8603	 11.1725
    74	1	 21.9639	 20.9324	 10.3095
    75	1	 21.4246	  22.169	 10.6202
    76	1	 20.3144	 22.1596	 11.5658
    77	1	 20.2925	 21.1817	 12.6521
    78	1	 20.9403	 19.9609	 12.2228
    79	1	 22.5357	 20.8643	  9.3852
    80	1	 20.2151	 19.1865	 12.1485
    81	1	 21.2027	 22.8458	 9.77057
    82	1	 19.1919	 20.9644	 12.8091
    83	1	 20.1211	 23.2217	  11.911
    84	1	 21.7448	 18.8914	 10.6194
    85	1	 37.4827	 5.34241	 30.9685
    86	1	 37.4313	 4.83259	 29.6971
    87	1	 36.5185	 5.59183	  28.875
    88	1	 35.6454	 6.57533	 29.3542
    89	1	 35.5741	  6.6385	 30.8115
    90	1	 36.4713	   6.073	 31.6191
    91	1	 38.2188	 4.28313	 29.2093
    92	1	 36.4764	 6.08034	 32.7205
    93	1	 36.5261	 5.32452	 27.8687
    94	1	 35.0157	 7.59838	 30.9831
    95	1	 34.6577	 6.30151	 29.0302
    96	1	  38.497	 5.59856	 31.3941
    97	1	 27.0117	 10.4261	 36.3165
    98	1	 27.1856	 11.3128	 37.4537
    99	1	 26.3273	 12.4325	 37.5738
   100	1	 25.0745	 12.3907	 36.8693
   101	1	 25.0594	 11.7624	  35.621
   102	1	 26.0463	 10.8001	  35.412
   103	1	   28.23	  11.623	 37.3851
   104	1	 25.4851	 9.85253	 35.1082
   105	1	 26.0717	  12.454	 38.6714
   106	1	  23.983	  11.476	 35.4177
   107	1	 24.5787	 13.3986	  36.854
   108	1	 27.7175	 9.72872	 36.0181
   109	1	 28.2964	 20.7341	 18.1018
   110	1	 28.0937	 20.0025	 19.2273
   111	1	 27.1249	 20.4066	 20.0623
   112	1	 26.2124	 21.3595	 19.7859
   113	1	 26.5127	 22.2116	 18.6744
   114	1	 27.4401	 21.7346	 17.7617
   115	1	 29.0316	 19.6426	 19.7082
   116	1	 27.6213	 22.2547	 16.8135
   117	1	 27.1782	 19.9416	 21.0661
   118	1	 25.5262	 22.5969	 18.3332
   119	1	 25.7666	 21.8543	 20.5957
   120	1	 29.0098	 20.2442	 17.4444
   121	1	 13.4374	 26.5251	 7.11855
   122	1	 12.8054	 25.5454	 6.22744
   123	1	 13.5351	 24.3885	 6.18474
   124	1	 14.8085	 24.3214	 6.74813
   125	1	 15.3584	 25.2202	 7.61598
   126	1	 14.6903	 26.4914	 7.61567
   127	1	 11.7047	 25.5274	 6.28854
   128	1	  15.131	 27.1936	 8.27873
   129	1	 13.2637	 23.4576	 5.81238
   130	1	   16.31	 25.0961	 8.14928
   131	1	 15.4192	 23.4969	  6.2648
   132	1	 13.0688	 27.4858	 6.78682
   133	1	 19.7488	 31.2902	 30.9706
   134	1	 18.5944	 30.5383	    31.3
   135	1	 17.9483	 30.7197	 32.4543
   136	1	 18.3778	 31.5838	 33.3888
   137	1	  19.596	 32.2083	 33.1153
   138	1	 20.3004	 31.9864	 32.0015
   139	1	 18.1528	 29.8567	 30.5387
   140	1	 21.3239	 32.2984	  32.073
   141	1	 16.9445	  30.328	 32.6816
   142	1	  19.689	 33.1106	 33.6328
   143	1	 18.1505	 31.2307	 34.3969
   144	1	 20.3135	 30.8098	 30.1487
   145	1	 11.7661	  30.045	 4.12338
   146	1	 11.4983	 31.1931	 3.35416
   147	1	 12.0422	 31.2427	 2.12228
   148	1	 12.8567	 30.2153	 1.65866
   149	1	 12.9918	 29.0425	 2.34258
   150	1	 12.4181	 28.9167	 3.64548
   151	1	 10.7064	 31.7667	 3.75923
   152	1	 11.9263	 27.9971	 3.87682
   153	1	 11.9286	 32.1786	 1.65456
   154	1	 13.7147	 28.2788	 2.07392
   155	1	 13.1196	 30.3386	 0.66091
   156	1	 11.2199	 30.0696	 5.05357
   157	1	 16.2802	 10.1271	 38.1817
   158	1	   16.36	  11.425	 38.5501
   159	1	 15.8897	 12.4435	 37.6135
   160	1	 15.0022	 12.1123	 36.6643
   161	1	 14.9222	 10.7911	 36.1875
   162	1	 15.5041	 9.84516	 37.0212
   163	1	 17.3013	 11.7968	  38.942
   164	1	 14.8067	 9.06191	  37.257
   165	1	 16.5673	 13.2712	 37.3722
   166	1	 14.4236	 10.4994	 35.3117
   167	1	 14.4805	 12.7458	 36.0301
   168	1	 16.9724	 9.33464	 38.3031
   169	1	 15.3568	 25.7051	 19.5873
   170	1	 14.9762	 25.5336	 20.9771
   171	1	 15.7253	 26.1502	 21.9159
   172	1	 16.5946	 27.2239	 21.5654
   173	1	  16.733	 27.6192	 20.2859
   174	1	   16.01	 26.8698	 19.2806
   175	1	 14.2444	 24.7829	 21.2179
   176	1	 16.6253	 26.8999	 18.3468
   177	1	 15.6619	 25.9124	 22.9355
   178	1	  17.313	 28.4697	 19.9774
   179	1	 17.1645	 27.5929	 22.3762
   180	1	 15.7481	 24.7353	 19.3143
   181	1	 28.0977	 21.8658	 33.1007
   182	1	 26.7457	 21.3983	 32.8079
   183	1	 25.8198	 21.9456	 33.6223
   184	1	 25.9398	 23.0227	  34.568
   185	1	 27.2554	 23.5841	 34.7207
   186	1	 28.2989	 23.0424	  33.931
   187	1	 26.5916	 20.3275	 32.6567
   188	1	 29.1772	 23.6283	 33.7939
   189	1	 24.7497	 21.7234	 33.4257
   190	1	 27.4341	 24.5708	 35.0445
   191	1	 25.0562	 23.6187	 34.5634
   192	1	 28.7181	   22.03	 32.2638
   193	1	 25.7106	 26.6032	 6.14338
   194	1	 25.4304	 26.4214	 7.56436
   195	1	 25.9785	 27.4789	 8.32831
   196	1	  26.903	 28.3404	 7.80429
   197	1	 27.3296	 28.2274	 6.48668
   198	1	 26.6656	 27.3978	 5.57046
   199	1	 24.3449	 26.4096	 7.71231
   200	1	 27.4727	 27.0278	 4.89458
   201	1	 25.5789	 27.6248	 9.31508
   202	1	 27.8696	  28.972	 5.94858
   203	1	 27.3112	 28.9468	 8.56075
   204	1	  25.541	 25.5419	 5.76731
   205	1	 37.1877	 36.8904	 16.5744
   206	1	 37.9897	 37.8813	 17.1666
   207	1	 39.0655	 37.5044	 17.9653
   208	1	  39.178	 36.2317	  18.441
   209	1	  38.536	 35.1941	 17.6774
   210	1	  37.685	 35.5233	 16.5811
   211	1	 37.5477	 38.8169	 17.3286
   212	1	 37.3079	  34.803	 15.8983
   213	1	 39.5516	 38.2612	 18.5245
   214	1	  39.159	 34.3931	 17.4575
   215	1	0.104303	 35.8173	 18.9182
   216	1	 36.2607	 37.1173	 16.1698
   217	1	 24.2183	  2.3757	 24.0792
   218	1	 24.2963	 2.01917	 25.4526
   219	1	 23.0802	 1.89608	 26.1834
   220	1	  21.907	 2.21251	 25.5956
   221	1	  21.815	 2.63284	 24.2723
   222	1	 23.0003	 2.96627	  23.565
   223	1	 25.1906	 1.67616	 25.9225
   224	1	  23.065	 2.96684	 22.4967
   225	1	 23.3146	 1.86178	 27.2045
   226	1	 20.8336	 2.89112	 23.7931
   227	1	 20.9032	 1.82483	  25.912
   228	1	 25.0176	 2.98791	  23.654
   229	1	 22.1565	 20.1232	 37.2495
   230	1	 22.1399	 21.5611	 37.5036
   231	1	 23.3287	 21.9622	 38.1898
   232	1	 24.1699	   21.08	 38.8853
   233	1	 23.7365	 19.7854	 38.9622
   234	1	 22.8703	 19.2239	 38.1097
   235	1	 22.0903	 22.0136	 36.5298
   236	1	 22.4692	 18.2383	 38.2853
   237	1	 23.8661	 22.5965	 37.4555
   238	1	 24.3507	 19.0148	 39.4613
   239	1	 24.6541	  21.475	 39.7987
   240	1	 22.1534	 19.8752	 36.1539
ITEM: TIMESTEP
0.433988
ITEM: NUMBER OF ATOMS
240
ITEM: BOX BOUNDS
0	40
0	40
0	40
ITEM: ATOMS index type x y z
     1	1	 22.6789	 1.74123	 35.6617
     2	1	 23.1412	 2.32936	 34.4274
     3	1	 22.4123	 3.41915	 33.8947
     4	1	 21.5876	 4.15829	 34.6592
     5	1	 21.2839	 3.64671	 35.9107
     6	1	 21.6769	 2.46799	 36.4043
     7	1	 24.1645	 2.70984	 34.7428
     8	1	 22.0633	 2.60747	 37.4271
     9	1	 23.1761	 3.99549	 33.3084
    10	1	 20.3914	 4.09953	 36.3502
    11	1	  20.652	 4.42529	 34.1045
    12	1	 23.5153	 1.63611	 36.4194
    13	1	 30.8734	 26.6374	 2.64032
    14	1	 29.8246	 27.2467	 1.88918
    15	1	 29.9775	 28.6471	 1.54928
    16	1	 31.1026	 29.3805	 1.82961
    17	1	  32.213	 28.7084	 2.46388
    18	1	 31.9485	  27.417	 2.85281
    19	1	 28.8894	 27.1463	 2.46018
    20	1	  32.868	 26.9641	 3.25543
    21	1	 28.9843	 29.0867	 1.61698
    22	1	 33.0632	 28.8503	 1.88983
    23	1	 31.3736	 30.3169	  1.4645
    24	1	 30.3755	 26.0417	 3.46014
    25	1	 35.5211	 8.95193	 8.27544
    26	1	  36.034	 8.47536	 7.10482
    27	1	 36.6282	 7.22395	 7.16008
    28	1	 37.4783	  6.9486	 8.28918
    29	1	 36.9558	 7.54932	 9.48114
    30	1	 35.8864	 8.35548	 9.42186
    31	1	  35.519	 8.65053	 6.20082
    32	1	 35.4926	 8.97815	 10.2748
    33	1	 37.1123	 6.91614	 6.24484
    34	1	 37.3651	 7.13905	 10.4301
    35	1	 38.5073	 6.81909	 8.10898
    36	1	 34.5672	 9.45672	 8.34554
    37	1	  29.693	 7.60754	 10.1644
    38	1	 31.0088	 7.02721	 10.0444
    39	1	 32.1088	 7.85805	 10.1676
    40	1	 32.0196	 9.22163	 9.99778
    41	1	 30.6887	 9.80597	 10.0138
    42	1	 29.5039	 9.00849	 9.89064
    43	1	 31.0285	 6.10296	 10.6928
    44	1	 28.6724	  9.3387	  10.431
    45	1	 32.9259	 7.42025	 9.50274
    46	1	 30.6943	  10.721	 9.50244
    47	1	 32.8267	 9.88678	 10.4046
    48	1	 28.8141	 7.05088	 9.96163
    49	1	 25.2139	 36.4731	 3.85025
    50	1	 24.8659	  35.187	 3.30403
    51	1	 25.4554	 34.6604	 2.19396
    52	1	 26.3325	 35.5436	 1.41592
    53	1	 26.5611	 36.8876	 1.79785
    54	1	 25.8542	 37.3808	 2.90388
    55	1	 23.7414	 35.0981	 3.49536
    56	1	 25.5129	 38.4197	 2.87475
    57	1	 25.8946	 33.6457	  2.4004
    58	1	 26.6007	 37.4789	0.886625
    59	1	 25.9659	 35.4828	0.402282
    60	1	 25.6574	 36.4183	 4.82754
    61	1	 10.1964	 5.56692	 4.75293
    62	1	 10.8084	 5.03616	 5.92753
    63	1	  12.119	 5.00782	 6.16102
    64	1	 12.7809	 6.27016	 5.89389
    65	1	 12.0829	 7.09705	  4.9671
    66	1	 10.7324	  6.8847	 4.55345
    67	1	 10.0735	 4.32055	 6.32863
    68	1	 10.3533	 7.47372	 3.70887
    69	1	 12.5657	 4.61129	 7.11466
    70	1	 12.4742	 8.11165	 4.82412
    71	1	 13.7829	 6.04278	 5.73235
    72	1	 9.09946	 5.53408	 4.76117
    73	1	 21.8438	 19.8641	  11.148
    74	1	 22.0148	 21.0152	 10.3266
    75	1	 21.3361	 22.1589	 10.7874
    76	1	 20.4342	 22.2252	  11.779
    77	1	 20.2666	 21.1671	 12.6094
    78	1	 20.9491	 19.9797	 12.1725
    79	1	 22.3513	 20.8246	  9.3617
    80	1	 20.1299	 19.2353	 12.0273
    81	1	 21.0863	 22.7938	 9.89514
    82	1	  19.408	 20.9211	 13.1592
    83	1	 19.8467	 23.0907	 11.7529
    84	1	 21.7871	 18.9639	 10.5701
    85	1	 37.4987	 5.37831	 31.0071
    86	1	 37.2536	 4.72617	 29.7164
    87	1	 36.6799	 5.77028	 28.8632
    88	1	 35.6432	 6.52124	 29.3978
    89	1	 35.4073	 6.64509	 30.8388
    90	1	 36.4088	 5.98931	 31.6086
    91	1	 38.2464	 4.55049	 29.2988
    92	1	  36.421	 6.06359	 32.6784
    93	1	 36.6656	  5.3703	 27.8846
    94	1	 35.1413	 7.67801	 31.0151
    95	1	 34.7571	 6.71939	 28.7823
    96	1	 38.3806	 5.98967	  30.893
    97	1	 26.9777	 10.4287	 36.3477
    98	1	 27.2163	 11.3846	 37.4378
    99	1	 26.2487	 12.4608	 37.6482
   100	1	 25.0187	  12.423	 36.8705
   101	1	 25.1098	 11.8521	 35.5848
   102	1	 26.1744	  10.901	 35.2629
   103	1	 28.2837	 11.6675	 37.5046
   104	1	 25.7801	 10.0501	 34.7202
   105	1	 26.1345	 12.4433	 38.7658
   106	1	 24.2034	 11.2248	 35.4067
   107	1	 24.5381	 13.4428	 36.8462
   108	1	 27.8963	 9.98895	 35.9433
   109	1	 28.2969	 20.6597	 18.0947
   110	1	 28.1015	 19.9047	 19.1857
   111	1	 27.0242	 20.2832	  20.023
   112	1	 26.1667	 21.2582	 19.7284
   113	1	 26.4554	   22.01	 18.5562
   114	1	 27.4318	 21.7003	 17.6423
   115	1	 28.9956	 19.5843	 19.7019
   116	1	 28.0582	 22.4573	 17.1892
   117	1	 27.2137	  19.893	 21.0707
   118	1	   25.65	 22.6273	  18.227
   119	1	 25.9687	  21.892	 20.6521
   120	1	 28.8817	  20.147	 17.3394
   121	1	  13.428	 26.4712	 7.13463
   122	1	 12.8223	 25.5226	 6.20457
   123	1	 13.5506	 24.3556	 6.18618
   124	1	 14.9098	 24.2524	 6.65194
   125	1	 15.2861	 25.0662	 7.67824
   126	1	 14.7414	 26.3598	  7.6492
   127	1	 11.7639	 25.5067	 6.56617
   128	1	 14.9959	 27.0279	   8.521
   129	1	 13.2774	 23.4655	 5.58399
   130	1	 16.0978	 24.9926	 8.34793
   131	1	   15.59	 24.3352	 5.82484
   132	1	 13.1425	 27.5362	 6.84965
   133	1	 19.7537	 31.3002	 30.9515
   134	1	 18.5917	  30.594	 31.3746
   135	1	 17.9294	 30.6091	 32.5873
   136	1	 18.4861	 31.6742	 33.4198
   137	1	 19.6967	 32.2891	 33.1208
   138	1	  20.427	 31.8812	 32.0171
   139	1	 18.2638	 29.9909	 30.5274
   140	1	 21.3178	 32.4529	 31.9596
   141	1	 16.8676	  30.435	  32.618
   142	1	 19.7604	  33.348	 33.2378
   143	1	 18.4595	 31.3646	 34.4988
   144	1	  20.212	 30.8098	 30.1068
   145	1	 11.7582	 30.0664	 4.15913
   146	1	 11.4061	 31.1384	 3.42032
   147	1	 11.9062	 31.3104	 2.09516
   148	1	 12.8079	 30.3319	 1.71974
   149	1	 13.0109	 29.0507	 2.33569
   150	1	 12.4354	 28.9272	 3.60263
   151	1	 10.7684	 31.8965	 3.86883
   152	1	 11.6542	 28.1553	 3.56249
   153	1	 11.8655	 32.2845	 1.67092
   154	1	 13.9086	 28.5648	 2.02589
   155	1	 13.0232	  30.417	0.628505
   156	1	 11.2592	 29.7486	 5.07022
   157	1	 16.2324	 10.1228	 38.0532
   158	1	  16.358	 11.3897	 38.5476
   159	1	 15.8331	 12.4096	 37.6621
   160	1	  14.813	 12.1118	 36.6704
   161	1	 14.9393	 10.8417	 36.1211
   162	1	 15.3964	 9.78851	 36.9946
   163	1	 17.1007	 11.8288	 39.1455
   164	1	 14.6467	 8.98543	 37.1068
   165	1	 16.6558	 12.7957	 37.0116
   166	1	 14.4346	 10.5785	 35.1888
   167	1	 14.4419	 12.9037	 36.0654
   168	1	 17.0153	 9.39085	 38.1074
   169	1	 15.4067	 25.6631	 19.5459
   170	1	 14.9537	 25.5333	 20.9324
   171	1	 15.7403	 26.1096	 21.8622
   172	1	  16.599	 27.2296	 21.6294
   173	1	 16.6727	 27.6958	 20.3687
   174	1	 16.0115	 26.9322	   19.31
   175	1	 14.2816	  24.712	 21.0846
   176	1	 16.6653	 26.7845	 18.3901
   177	1	 15.7708	 25.8785	  22.913
   178	1	 17.1326	  28.621	 20.0628
   179	1	 17.2793	 27.4644	 22.4302
   180	1	 16.1898	 24.9148	 19.4769
   181	1	 28.2448	 21.9066	 33.1429
   182	1	 26.9164	 21.4112	 32.7893
   183	1	 25.8613	 21.9744	 33.6108
   184	1	 25.9529	 23.0574	 34.4473
   185	1	  27.207	 23.4898	 34.7424
   186	1	 28.3315	  22.915	  34.033
   187	1	 27.0261	 20.2902	 32.8059
   188	1	 29.1631	 23.5899	 33.8802
   189	1	 24.9067	 21.8411	 33.1685
   190	1	  27.459	 24.3307	 35.3252
   191	1	 25.0279	 23.5628	 34.5922
   192	1	 28.7072	 22.1957	 32.2018
   193	1	 25.6116	 26.5794	 6.23446
   194	1	 25.4006	 26.4857	 7.60085
   195	1	 26.0191	 27.4476	 8.46156
   196	1	 26.9025	 28.4074	 7.81715
   197	1	 27.3878	 28.2149	 6.55625
   198	1	  26.664	 27.4163	  5.6583
   199	1	 24.2963	 26.3989	 7.87539
   200	1	 27.4476	 26.8364	 5.06841
   201	1	 25.3831	 27.8702	  9.2311
   202	1	 27.6791	 29.1339	 5.98258
   203	1	 27.3608	 29.0025	 8.61381
   204	1	 25.5552	  25.595	 5.76321
   205	1	 37.2218	 36.8417	 16.5871
   206	1	 38.0062	 37.8154	 17.0866
   207	1	 39.2077	 37.5007	 17.7835
   208	1	 39.1758	 36.2327	 18.5186
   209	1	 38.5322	 35.2167	 17.6788
   210	1	  37.775	 35.5757	 16.5904
   211	1	 37.5786	 38.7613	 17.5444
   212	1	 37.5214	 34.8224	 15.9104
   213	1	  39.437	 38.4098	 18.3945
   214	1	 39.3889	 34.6015	 17.3311
   215	1	0.253526	 35.9139	 18.5252
   216	1	 36.1805	 36.7946	  16.454
   217	1	 24.1743	 2.46549	 24.1779
   218	1	 24.2823	 2.07577	 25.5665
   219	1	  23.021	  1.7569	 26.2323
   220	1	 21.8939	 2.14805	 25.5404
   221	1	 21.8602	 2.54484	  24.191
   222	1	 23.0128	 3.01831	 23.6195
   223	1	 24.9942	 1.24265	 25.7322
   224	1	 23.0271	 3.38807	 22.5723
   225	1	 23.1234	 2.32127	 27.2202
   226	1	 20.8791	 3.00856	  23.887
   227	1	  21.059	 1.50991	 25.7771
   228	1	 25.0726	 2.93226	 23.7102
   229	1	 22.2182	  20.119	 37.2763
   230	1	  22.105	 21.5054	 37.6581
   231	1	 23.3763	 22.0588	 38.1158
   232	1	 24.1423	 21.0914	 38.8484
   233	1	 23.6999	 19.7879	 39.1356
   234	1	 22.8197	 19.2885	 38.1508
   235	1	 21.7305	 22.1484	 36.8913
   236	1	 22.1424	  18.539	 38.6688
   237	1	 24.0201	 22.4972	 37.4072
   238	1	  24.411	 19.0815	 39.5872
   239	1	 24.4552	 21.4953	 39.8479
   240	1	 22.6469	 20.0517	 36.2748
ITEM: TIMESTEP
0.62506
ITEM: NUMBER OF ATOMS
240
ITEM: BOX BOUNDS
0	40
0	40
0	40
ITEM: ATOMS index type x y z
     1	1	 22.6262	 1.74044	  35.664
     2	1	 23.1563	 2.45898	 34.5168
     3	1	 22.4387	 3.49973	  33.866
     4	1	  21.525	 4.24073	 34.6579
     5	1	 21.2373	 3.71538	 35.9502
     6	1	 21.6038	  2.4371	 36.3985
     7	1	 24.2275	 2.47249	 34.6162
     8	1	 21.9042	 2.56495	 37.4729
     9	1	 23.1932	 4.22284	 33.5234
    10	1	 20.2546	 4.02487	  36.438
    11	1	 20.6896	 4.66809	 34.2071
    12	1	 23.5204	 1.40623	 36.2001
    13	1	 30.9271	 26.6495	 2.57385
    14	1	 29.8867	 27.2664	 1.82161
    15	1	 30.0233	 28.6375	 1.49649
    16	1	 31.1009	 29.3643	 1.82437
    17	1	 32.2324	 28.7154	 2.41362
    18	1	 32.0943	 27.4491	 2.93418
    19	1	 28.8605	 27.0262	 2.19113
    20	1	 32.9316	 26.8163	  2.5709
    21	1	 29.0639	 29.1387	 1.56299
    22	1	 33.0845	 28.7619	  1.7346
    23	1	 31.5235	 30.0416	  1.0335
    24	1	 30.4313	 26.3074	 3.53288
    25	1	 35.5461	 8.97439	  8.2802
    26	1	 36.1995	 8.52344	 7.09245
    27	1	 36.6759	 7.24715	 7.17072
    28	1	 37.5173	 6.98514	 8.30109
    29	1	 36.9922	 7.45664	 9.58356
    30	1	  35.791	  8.2846	 9.42216
    31	1	 35.6421	 8.71727	 6.11831
    32	1	 35.4427	 8.78875	 10.3367
    33	1	 37.0436	 6.62543	 6.38999
    34	1	 36.7663	 6.53419	 10.1022
    35	1	 38.4009	 7.56417	 8.14783
    36	1	  34.658	 9.51899	 8.21804
    37	1	 29.6443	 7.63423	 10.0254
    38	1	 30.9468	 7.08697	 10.0247
    39	1	 32.1691	 7.82258	 10.1773
    40	1	 31.9998	 9.23031	 9.98201
    41	1	 30.6845	 9.77869	 9.84647
    42	1	 29.5667	 9.02988	 9.91739
    43	1	 30.9589	 6.27619	 10.7967
    44	1	 28.5714	 9.44581	 10.0621
    45	1	 32.9234	 7.40572	 9.49993
    46	1	  30.782	 10.6871	 9.18622
    47	1	 32.3696	 9.64664	 10.9697
    48	1	 28.8562	 7.04821	 9.62059
    49	1	 25.2567	 36.5093	 3.86046
    50	1	 24.9035	 35.1753	  3.4173
    51	1	 25.5938	 34.6714	 2.28409
    52	1	 26.2408	 35.5326	  1.3668
    53	1	 26.5448	 36.8837	 1.78465
    54	1	 25.8448	 37.4075	 2.92999
    55	1	 23.9295	 34.8693	  3.6338
    56	1	 25.2673	 38.2689	 2.56307
    57	1	 26.0691	 33.7503	 2.54772
    58	1	 26.5702	   37.56	0.902288
    59	1	 26.2443	 35.3259	0.309436
    60	1	 25.7063	 36.4714	 4.79852
    61	1	 10.1271	 5.77401	 4.89126
    62	1	 10.7315	 4.98271	 5.94357
    63	1	 12.0162	 5.06254	 6.29116
    64	1	 12.7758	 6.18382	 5.76361
    65	1	 12.1009	 7.11731	 4.99399
    66	1	 10.8093	 6.86489	 4.42175
    67	1	 9.99218	  4.2925	 6.22143
    68	1	 10.6957	 7.14392	 3.34855
    69	1	 12.6476	 4.34416	 6.70213
    70	1	  12.162	 8.18597	 5.22631
    71	1	 13.7591	  6.0288	 5.42026
    72	1	 9.08493	 5.54668	 4.75097
    73	1	 21.8383	  19.909	 11.0874
    74	1	 22.0984	 21.1005	 10.4406
    75	1	 21.2624	 22.1554	 10.7756
    76	1	 20.5045	 22.3181	 11.9651
    77	1	 20.2885	 21.1299	  12.636
    78	1	 20.8402	 19.9253	 12.1178
    79	1	 21.9569	 20.9136	 9.33593
    80	1	 20.1932	 19.0575	 12.2462
    81	1	 21.2235	 23.0661	 10.2568
    82	1	 19.6359	 21.0708	 13.4846
    83	1	 19.8177	 23.1534	 11.9033
    84	1	 21.9974	 18.9344	 10.5344
    85	1	 37.4782	 5.31922	 30.9947
    86	1	 37.1139	  4.7669	 29.7171
    87	1	 36.7366	 5.88521	  28.882
    88	1	 35.6383	 6.57674	 29.4055
    89	1	 35.3289	 6.62869	 30.8164
    90	1	 36.3543	 5.97551	 31.5874
    91	1	 37.9126	 4.20544	  29.246
    92	1	 36.1701	 5.86476	 32.6281
    93	1	 36.7375	 5.48942	 27.8589
    94	1	 35.1613	  7.7249	 31.0059
    95	1	 35.0412	 7.24128	 28.8037
    96	1	  38.393	 5.83728	 31.0073
    97	1	 26.9663	 10.5144	 36.3474
    98	1	  27.244	 11.4447	 37.4242
    99	1	 26.1501	 12.3496	 37.7449
   100	1	 25.0475	 12.5522	 36.7982
   101	1	 25.1389	 11.8623	 35.5577