ITEM: TIMESTEP
0.433988
ITEM: NUMBER OF ATOMS
240
ITEM: BOX BOUNDS
0	40
0	40
0	40
ITEM: ATOMS index type x y z
     1	 22.6789	 1.74123	 35.6617	-0.221572	0.000337274	-0.64799
     2	 23.1412	 2.32936	 34.4274	-0.128484	0.534721	 0.61073
     3	 22.4123	 3.41915	 33.8947	0.0203886	0.062045	 0.29839
     4	 21.5876	 4.15829	 34.6592	-0.711814	-0.428607	0.0801701
     5	 21.2839	 3.64671	 35.9107	0.0241894	0.522512	-0.646686
     6	 21.6769	 2.46799	 36.4043	-0.341854	-0.117117	0.0561134
     7	 24.1645	 2.70984	 34.7428	-3.43169	0.350306	0.575018
     8	 22.0633	 2.60747	 37.4271	0.536414	-0.541388	 1.30969
     9	 23.1761	 3.99549	 33.3084	 3.40051	 2.03298	0.627693
    10	 20.3914	 4.09953	 36.3502	0.241599	-0.562449	-1.06151
    11	  20.652	 4.42529	 34.1045	-2.35017	 2.20055	0.467301
    12	 23.5153	 1.63611	 36.4194	-0.168776	 2.15088	0.448245
    13	 30.8734	 26.6374	 2.64032	  1.0184	0.166559	-0.592207
    14	 29.8246	 27.2467	 1.88918	0.113437	 0.79839	-0.481861
    15	 29.9775	 28.6471	 1.54928	0.425193	-0.638516	-0.26418
    16	 31.1026	 29.3805	 1.82961	0.143196	0.0753726	-0.103055
    17	  32.213	 28.7084	 2.46388	0.0569958	-0.344177	-0.221351
    18	 31.9485	  27.417	 2.85281	-0.337737	-0.0830418	0.639538
    19	 28.8894	 27.1463	 2.46018	0.638914	-2.77294	 -1.0464
    20	  32.868	 26.9641	 3.25543	 1.49996	0.857124	-4.52365
    21	 28.9843	 29.0867	 1.61698	-1.29432	 0.80588	 0.67379
    22	 33.0632	 28.8503	 1.88983	0.160797	0.535189	-1.87892
    23	 31.3736	 30.3169	  1.4645	0.469452	-0.702132	-1.34832
    24	 30.3755	 26.0417	 3.46014	 1.85857	  1.6271	  3.7276
    25	 35.5211	 8.95193	 8.27544	0.171381	-0.00337726	-0.41192
    26	  36.034	 8.47536	 7.10482	0.975378	0.513672	-0.140478
    27	 36.6282	 7.22395	 7.16008	-0.10129	-0.169604	0.389518
    28	 37.4783	  6.9486	 8.28918	-0.254596	0.661892	 0.22533
    29	 36.9558	 7.54932	 9.48114	-0.397012	-0.00361304	 0.25738
    30	 35.8864	 8.35548	 9.42186	0.00229537	-0.895947	0.534374
    31	  35.519	 8.65053	 6.20082	0.641285	0.366455	-0.419345
    32	 35.4926	 8.97815	 10.2748	 1.11021	-2.80864	  -2.307
    33	 37.1123	 6.91614	 6.24484	0.247458	0.330188	-4.83658
    34	 37.3651	 7.13905	 10.4301	-2.19279	-3.48586	 2.49279
    35	 38.5073	 6.81909	 8.10898	 4.34617	 2.57342	 1.48834
    36	 34.5672	 9.45672	 8.34554	0.891814	 1.26596	 1.35615
    37	  29.693	 7.60754	 10.1644	-0.141821	-0.42873	-0.568775
    38	 31.0088	 7.02721	 10.0444	-0.729276	-0.190548	-0.0531114
    39	 32.1088	 7.85805	 10.1676	-0.0451709	-0.363301	0.0751669
    40	 32.0196	 9.22163	 9.99778	0.403606	-0.28154	0.0123331
    41	 30.6887	 9.80597	 10.0138	-0.921429	-0.233267	-0.737088
    42	 29.5039	 9.00849	 9.89064	0.672865	0.791754	-0.103999
    43	 31.0285	 6.10296	 10.6928	-1.14137	  1.7157	0.488529
    44	 28.6724	  9.3387	  10.431	-0.33647	-0.276093	-2.91707
    45	 32.9259	 7.42025	 9.50274	 1.01378	 4.10887	0.240569
    46	 30.6943	  10.721	 9.50244	0.0875164	 2.28941	-3.19985
    47	 32.8267	 9.88678	 10.4046	 1.56379	0.224244	 1.70612
    48	 28.8141	 7.05088	 9.96163	0.106498	 1.14995	-1.71771
    49	 25.2139	 36.4731	 3.85025	0.465296	0.291219	 1.11873
    50	 24.8659	  35.187	 3.30403	-1.00627	-0.805204	0.150656
    51	 25.4554	 34.6604	 2.19396	0.767088	-0.0213884	0.580106
    52	 26.3325	 35.5436	 1.41592	0.0182166	0.211634	-0.907438
    53	 26.5611	 36.8876	 1.79785	0.219979	-0.167999	-1.11669
    54	 25.8542	 37.3808	 2.90388	-0.119998	-0.0582566	-0.548193
    55	 23.7414	 35.0981	 3.49536	-1.76008	-1.15064	 2.02485
    56	 25.5129	 38.4197	 2.87475	 -2.1307	-1.57155	0.989285
    57	 25.8946	 33.6457	  2.4004	0.469696	-0.159971	0.423579
    58	 26.6007	 37.4789	0.886625	0.357825	 1.79956	   4.577
    59	 25.9659	 35.4828	0.402282	 1.81105	-2.13702	 1.45612
    60	 25.6574	 36.4183	 4.82754	-1.34436	-0.649305	-1.04379
    61	 10.1964	 5.56692	 4.75293	-0.36107	 1.16108	0.785294
    62	 10.8084	 5.03616	 5.92753	-0.894805	-0.189493	-0.0413246
    63	  12.119	 5.00782	 6.16102	0.349146	 1.32388	0.504977
    64	 12.7809	 6.27016	 5.89389	0.263205	0.0127481	-0.651306
    65	 12.0829	 7.09705	  4.9671	 -0.8244	-0.543822	0.348993
    66	 10.7324	  6.8847	 4.55345	0.0570208	-0.367732	-0.566636
    67	 10.0735	 4.32055	 6.32863	-1.51822	-0.460655	-1.32663
    68	 10.3533	 7.47372	 3.70887	 1.80543	-1.59349	-2.12537
    69	 12.5657	 4.61129	 7.11466	0.710313	-1.10311	 -2.6264
    70	 12.4742	 8.11165	 4.82412	 5.12073	0.440063	 2.37726
    71	 13.7829	 6.04278	 5.73235	-1.53465	-3.96708	 1.31017
    72	 9.09946	 5.53408	 4.76117	-0.429776	 1.99242	-1.73204
    73	 21.8438	 19.8641	  11.148	-0.489204	0.415644	0.532427
    74	 22.0148	 21.0152	 10.3266	0.656929	-0.33214	0.317632
    75	 21.3361	 22.1589	 10.7874	-0.495194	-0.0519798	-0.0408858
    76	 20.4342	 22.2252	  11.779	0.211743	-0.241499	   1.746
    77	 20.2666	 21.1671	 12.6094	0.443396	-0.100326	-0.212131
    78	 20.9491	 19.9797	 12.1725	0.00234826	0.297563	-1.02439
    79	 22.3513	 20.8246	  9.3617	-2.66751	 2.37198	0.476774
    80	 20.1299	 19.2353	 12.0273	   0.696	0.117143	 2.26119
    81	 21.0863	 22.7938	 9.89514	 0.39779	 2.01433	 1.86302
    82	  19.408	 20.9211	 13.1592	 -3.2651	  2.5233	 2.26506
    83	 19.8467	 23.0907	 11.7529	-0.850249	 0.23947	0.0444386
    84	 21.7871	 18.9639	 10.5701	 2.00445	 1.49716	-4.00207
    85	 37.4987	 5.37831	 31.0071	-0.163243	0.00795556	-0.209692
    86	 37.2536	 4.72617	 29.7164	-0.410006	 0.41143	0.285525
    87	 36.6799	 5.77028	 28.8632	0.700584	0.839195	0.279822
    88	 35.6432	 6.52124	 29.3978	0.0441592	-0.662857	0.194699
    89	 35.4073	 6.64509	 30.8388	-0.865503	0.0267095	-0.15208
    90	 36.4088	 5.98931	 31.6086	-0.230417	 -0.3506	-0.295751
    91	 38.2464	 4.55049	 29.2988	-5.24151	-3.83105	 1.86695
    92	  36.421	 6.06359	 32.6784	-0.115075	-0.649827	-2.28432
    93	 36.6656	  5.3703	 27.8846	0.447502	0.299026	-0.29119
    94	 35.1413	 7.67801	 31.0151	0.763481	 1.14983	 2.54319
    95	 34.7571	 6.71939	 28.7823	 1.64749	 3.05404	 2.39446
    96	 38.3806	 5.98967	  30.893	-1.91219	-0.488943	-4.02794
    97	 26.9777	 10.4287	 36.3477	-0.720182	0.251869	-0.0040789
    98	 27.2163	 11.3846	 37.4378	0.238948	 0.86145	-0.17418
    99	 26.2487	 12.4608	 37.6482	-0.945931	-0.384985	0.571844
   100	 25.0187	  12.423	 36.8705	0.180584	 0.49889	-0.149801
   101	 25.1098	 11.8521	 35.5848	0.590399	-0.808807	-0.0745096
   102	 26.1744	  10.901	 35.2629	0.834746	 1.14362	-0.121825
   103	 28.2837	 11.6675	 37.5046	 1.78922	-2.44557	-0.109812
   104	 25.7801	 10.0501	 34.7202	 1.58789	 1.06336	-2.08813
   105	 26.1345	 12.4433	 38.7658	-1.18077	0.392182	-1.44306
   106	 24.2034	 11.2248	 35.4067	0.615446	 1.22225	-1.22307
   107	 24.5381	 13.4428	 36.8462	0.690637	 1.12697	0.755763
   108	 27.8963	 9.98895	 35.9433	-0.269198	 1.96001	-1.83787
   109	 28.2969	 20.6597	 18.0947	-0.164566	-0.815523	0.667739
   110	 28.1015	 19.9047	 19.1857	0.0399194	-0.0745103	-0.650011
   111	 27.0242	 20.2832	  20.023	-0.632354	-0.670492	-0.0804665
   112	 26.1667	 21.2582	 19.7284	-0.273721	-0.331499	-0.514388
   113	 26.4554	   22.01	 18.5562	-0.301086	-1.27384	-0.477062
   114	 27.4318	 21.7003	 17.6423	0.0179615	-0.125065	-0.66415
   115	 28.9956	 19.5843	 19.7019	0.800831	0.606068	 1.89459
   116	 28.0582	 22.4573	 17.1892	 2.09272	-0.835333	 3.27152
   117	 27.2137	  19.893	 21.0707	  1.4864	-0.634433	-2.74244
   118	   25.65	 22.6273	  18.227	-0.27158	 1.42716	 -1.5925
   119	 25.9687	  21.892	 20.6521	 1.08791	0.202526	0.303396
   120	 28.8817	  20.147	 17.3394	-0.851108	 0.22667	-1.69725
   121	  13.428	 26.4712	 7.13463	-0.124204	0.00449638	-0.312983
   122	 12.8223	 25.5226	 6.20457	-0.0887641	-0.0951576	0.129785
   123	 13.5506	 24.3556	 6.18618	-0.0136552	-0.068899	0.259806
   124	 14.9098	 24.2524	 6.65194	  1.0463	-0.678013	-0.900137
   125	 15.2861	 25.0662	 7.67824	-0.684807	-0.600643	0.237334
   126	 14.7414	 26.3598	  7.6492	0.521654	-0.700342	0.455423
   127	 11.7639	 25.5067	 6.56617	-1.40763	 -0.1071	 0.29891
   128	 14.9959	 27.0279	   8.521	-0.562388	-3.23096	-0.147928
   129	 13.2774	 23.4655	 5.58399	-0.707215	-1.05357	-3.05976
   130	 16.0978	 24.9926	 8.34793	-2.39026	0.608744	 1.08588
   131	   15.59	 24.3352	 5.82484	0.512814	 4.64855	0.672815
   132	 13.1425	 27.5362	 6.84965	 1.20791	-1.09144	 2.50413
   133	 19.7537	 31.3002	 30.9515	-0.0344032	-0.0912983	-0.119619
   134	 18.5917	  30.594	 31.3746	-0.0119563	-0.158778	-0.603227
   135	 17.9294	 30.6091	 32.5873	-0.188927	0.237859	0.160368
   136	 18.4861	 31.6742	 33.4198	0.125503	0.362695	0.869303
   137	 19.6967	 32.2891	 33.1208	0.744403	0.732778	0.250795
   138	  20.427	 31.8812	 32.0171	0.563486	-0.811718	0.159683
   139	 18.2638	 29.9909	 30.5274	0.0168823	0.429517	-0.077579
   140	 21.3178	 32.4529	 31.9596	-2.76526	0.482329	-2.66794
   141	 16.8676	  30.435	  32.618	-0.342555	 1.54373	-2.14899
   142	 19.7604	  33.348	 33.2378	 1.30164	 2.84883	 -2.3276
   143	 18.4595	 31.3646	 34.4988	 1.59593	0.727005	 1.65311
   144	  20.212	 30.8098	 30.1068	  2.6015	0.996939	-1.93573
   145	 11.7582	 30.0664	 4.15913	0.132339	0.0286403	-0.0579506
   146	 11.4061	 31.1384	 3.42032	-0.549414	-0.316598	0.572836
   147	 11.9062	 31.3104	 2.09516	-0.875496	0.040375	0.276303
   148	 12.8079	 30.3319	 1.71974	-0.274201	0.652427	0.328554
   149	 13.0109	 29.0507	 2.33569	0.389958	-0.267708	-0.201789
   150	 12.4354	 28.9272	 3.60263	4.45355e-05	0.642142	-0.559316
   151	 10.7684	 31.8965	 3.86883	 1.41507	0.324909	-1.22798
   152	 11.6542	 28.1553	 3.56249	-2.60121	-0.164364	-0.493404
   153	 11.8655	 32.2845	 1.67092	-1.27102	   3.455	0.881175
   154	 13.9086	 28.5648	 2.02589	0.498309	 1.23412	 1.21411
   155	 13.0232	  30.417	0.628505	-0.172985	-0.58895	0.349695
   156	 11.2592	 29.7486	 5.07022	-0.488828	-0.377879	-0.372357
   157	 16.2324	 10.1228	 38.0532	0.309364	-0.194927	-0.239488
   158	  16.358	 11.3897	 38.5476	-0.274866	-0.583591	-0.592515
   159	 15.8331	 12.4096	 37.6621	-0.37931	0.144278	0.307713
   160	  14.813	 12.1118	 36.6704	-1.23339	0.0237265	-0.0536011
   161	 14.9393	 10.8417	 36.1211	-0.135469	0.933919	-0.316639
   162	 15.3964	 9.78851	 36.9946	-0.525027	-0.0447356	-0.0293259
   163	 17.1007	 11.8288	 39.1455	0.666675	-2.96632	  2.9577
   164	 14.6467	 8.98543	 37.1068	-0.540758	0.166712	-1.67602
   165	 16.6558	 12.7957	 37.0116	0.522043	-2.85878	-1.34478
   166	 14.4346	 10.5785	 35.1888	0.568704	-2.74662	0.332248
   167	 14.4419	 12.9037	 36.0654	0.617506	-2.38441	-2.53577
   168	 17.0153	 9.39085	 38.1074	-1.55586	 1.11252	-1.02828
   169	 15.4067	 25.6631	 19.5459	0.606926	0.755397	0.343751
   170	 14.9537	 25.5333	 20.9324	-0.196588	-0.104461	-0.271326
   171	 15.7403	 26.1096	 21.8622	-0.297615	-0.520767	-0.593334
   172	  16.599	 27.2296	 21.6294	-0.0197019	 0.19856	0.416718
   173	 16.6727	 27.6958	 20.3687	-0.541052	-0.272061	0.170958
   174	 16.0115	 26.9322	   19.31	0.0568672	0.0819527	-0.180162
   175	 14.2816	  24.712	 21.0846	  1.3783	-0.453354	 3.32847
   176	 16.6653	 26.7845	 18.3901	 1.03589	 2.73816	-1.99157
   177	 15.7708	 25.8785	  22.913	 1.75301	 1.73148	-2.70972
   178	 17.1326	  28.621	 20.0628	-0.606047	 2.57026	0.133354
   179	 17.2793	 27.4644	 22.4302	 1.09302	-1.68298	  2.5604
   180	 16.1898	 24.9148	 19.4769	0.0690318	-0.983061	-1.04113
   181	 28.2448	 21.9066	 33.1429	 0.38179	0.525794	-0.179119
   182	 26.9164	 21.4112	 32.7893	  1.5247	-0.277971	0.456849
   183	 25.8613	 21.9744	 33.6108	0.471967	-0.382036	-0.57202
   184	 25.9529	 23.0574	 34.4473	-0.856427	0.100297	-0.868438
   185	  27.207	 23.4898	 34.7424	0.172866	0.375869	 0.71264
   186	 28.3315	  22.915	  34.033	0.763213	-1.41895	-0.0363302
   187	 27.0261	 20.2902	 32.8059	0.305245	 2.98659	-0.338963
   188	 29.1631	 23.5899	 33.8802	 2.86688	 2.40395	0.330236
   189	 24.9067	 21.8411	 33.1685	0.249463	 1.41133	-1.29947
   190	  27.459	 24.3307	 35.3252	-1.37305	-2.79885	 2.11429
   191	 25.0279	 23.5628	 34.5922	0.493413	-0.298508	 1.21966
   192	 28.7072	 22.1957	 32.2018	0.763302	-0.541574	-0.23698
   193	 25.6116	 26.5794	 6.23446	 -1.0458	-0.426808	0.650061
   194	 25.4006	 26.4857	 7.60085	-0.14724	0.193981	 0.25035
   195	 26.0191	 27.4476	 8.46156	-0.117876	-0.684705	0.818083
   196	 26.9025	 28.4074	 7.81715	-0.141337	0.492179	0.319298
   197	 27.3878	 28.2149	 6.55625	0.855605	 0.99848	-0.173412
   198	  26.664	 27.4163	  5.6583	0.609107	-0.0320775	0.709138
   199	 24.2963	 26.3989	 7.87539	-1.53334	 1.30714	  3.1543
   200	 27.4476	 26.8364	 5.06841	 -1.0646	0.120047	-1.73928
   201	 25.3831	 27.8702	  9.2311	-0.215699	 2.31455	-1.39518
   202	 27.6791	 29.1339	 5.98258	-0.979347	-2.02503	0.765479
   203	 27.3608	 29.0025	 8.61381	 1.96609	 1.75706	0.690536
   204	 25.5552	  25.595	 5.76321	 -1.5298	-1.75864	 0.52125
   205	 37.2218	 36.8417	 16.5871	-0.0414804	0.432735	0.0929466
   206	 38.0062	 37.8154	 17.0866	-0.32402	-0.0703142	-0.161032
   207	 39.2077	 37.5007	 17.7835	0.639964	-0.390986	-1.22924
   208	 39.1758	 36.2327	 18.5186	0.254273	-0.0451267	-0.268572
   209	 38.5322	 35.2167	 17.6788	0.819479	0.319753	0.111588
   210	  37.775	 35.5757	 16.5904	0.876029	-0.719382	0.0722119
   211	 37.5786	 38.7613	 17.5444	  3.0964	 1.79461	 1.17305
   212	 37.5214	 34.8224	 15.9104	 1.30376	0.265877	0.443572
   213	  39.437	 38.4098	 18.3945	-3.19982	0.324018	  0.8568
   214	 39.3889	 34.6015	 17.3311	-4.00944	-0.473371	0.701359
   215	0.253526	 35.9139	 18.5252	-2.26119	 1.35393	 1.55249
   216	 36.1805	 36.7946	  16.454	-1.37227	0.171515	0.685956
   217	 24.1743	 2.46549	 24.1779	0.305769	0.721118	0.457407
   218	 24.2823	 2.07577	 25.5665	0.169844	0.185655	 1.05048
   219	  23.021	  1.7569	 26.2323	-1.15649	0.0755793	-0.313169
   220	 21.8939	 2.14805	 25.5404	0.756246	-1.09242	0.327547
   221	 21.8602	 2.54484	  24.191	-0.585198	-0.279313	-0.875306
   222	 23.0128	 3.01831	 23.6195	0.0166271	0.124446	0.419257
   223	 24.9942	 1.24265	 25.7322	-1.52511	-5.57526	-0.597219
   224	 23.0271	 3.38807	 22.5723	 1.05113	 2.76486	-1.20999
   225	 23.1234	 2.32127	 27.2202	-1.86146	 1.10782	-3.19722
   226	 20.8791	 3.00856	  23.887	-1.15052	0.918807	 2.50088
   227	  21.059	 1.50991	 25.7771	 3.72823	-0.237733	0.0443698
   228	 25.0726	 2.93226	 23.7102	 2.44626	-0.0890119	0.488661
   229	 22.2182	  20.119	 37.2763	0.709692	-0.58384	0.265304
   230	  22.105	 21.5054	 37.6581	-0.0117831	0.0754771	0.944217
   231	 23.3763	 22.0588	 38.1158	0.528148	-0.0216962	-0.39258
   232	 24.1423	 21.0914	 38.8484	-0.443396	0.501069	-0.217719
   233	 23.6999	 19.7879	 39.1356	-0.100145	-0.553944	0.512073
   234	 22.8197	 19.2885	 38.1508	-0.641869	0.315511	0.228553
   235	 21.7305	 22.1484	 36.8913	-3.00998	-1.27809	 2.99936
   236	 22.1424	  18.539	 38.6688	 3.50744	 2.85136	-0.544919
   237	 24.0201	 22.4972	 37.4072	0.866609	0.0735945	 1.56124
   238	  24.411	 19.0815	 39.5872	0.294616	0.665614	0.583953
   239	 24.4552	 21.4953	 39.8479	-1.07569	0.912229	-1.58107
   240	 22.6469	 20.0517	 36.2748	 2.50105	 1.58834	-0.222773
