ITEM: TIMESTEP
1.23212
ITEM: NUMBER OF ATOMS
1200
ITEM: BOX BOUNDS
0	40
0	40
0	40
ITEM: ATOMS index type x y z
     1	 9.70017	  21.026	 30.1006	0.0468805	0.895136	-0.394337
     2	 9.72987	  21.086	 31.4917	0.445257	-0.0694582	-0.166658
     3	 10.5369	 20.0887	 32.1491	-0.744494	 -1.2748	0.573384
     4	 10.9924	 18.9204	 31.4423	0.159546	0.297669	0.646432
     5	  10.739	 18.7833	 30.0837	0.379615	 1.17363	0.404426
     6	  10.384	 20.0246	   29.44	-0.0102697	 0.77273	-0.0566092
     7	 8.79472	 21.3111	 31.9257	-0.965714	 2.33816	 1.52933
     8	 10.2123	 19.8363	 28.3621	-1.97292	-4.39135	0.233442
     9	 11.2306	 20.3901	 32.8905	0.359106	 1.67914	-3.70993
    10	 9.96526	 18.0428	 29.8496	-0.466773	  3.2509	-0.508861
    11	 12.0826	 18.8037	 31.6972	0.651306	 2.32215	-0.796675
    12	 8.64959	 21.0655	 29.6925	-0.704682	 1.06093	-0.19298
    13	 39.1272	 33.1435	 33.3091	0.990405	 1.24071	-0.922231
    14	 39.5066	 34.4645	 33.6716	-0.121265	 0.20204	0.0413173
    15	 38.7788	 35.5856	  33.244	0.232391	-0.145368	0.445457
    16	 37.9416	   35.43	 32.1645	 1.20723	-0.556689	-0.817616
    17	 37.5459	 34.1322	 31.6734	-0.149093	-0.652031	0.234348
    18	  38.355	 33.0276	 32.1272	0.226425	0.768174	-0.0583899
    19	0.603539	 34.6721	 33.7362	-3.75736	0.587045	 -1.5229
    20	 38.9294	 32.6166	 31.3179	-1.48705	0.130583	-0.601326
    21	 38.5299	 36.2515	 34.0745	0.836327	-1.41509	-1.25707
    22	 36.5356	 33.9657	 31.9422	-0.489224	-1.25738	 2.41792
    23	 38.2776	 35.9867	 31.3065	 1.99873	 1.90699	-1.61385
    24	 39.9675	 32.4834	 33.4579	-0.0228408	-1.97566	-2.07079
    25	 39.1947	 23.7141	 37.2978	0.0869126	 0.71607	0.151115
    26	 39.1231	 24.5603	 36.1887	-0.360132	0.133244	0.167497
    27	 39.5509	 25.8614	 36.3792	0.153844	-0.0830653	0.000878137
    28	 39.5689	 26.3135	 37.6929	-0.682601	0.679009	0.187248
    29	 39.8164	 25.4248	 38.7848	-1.04548	-0.287967	0.301325
    30	 39.7918	 24.0373	 38.5096	0.0121276	-0.726212	0.718194
    31	 39.3629	 24.2089	 35.2264	-0.427567	 1.73457	-1.03617
    32	 39.5865	 23.4475	 39.3781	-0.491406	 2.31502	 1.67092
    33	0.438939	 26.1717	 35.8109	-0.856199	 2.46077	0.784177
    34	 39.3059	 25.8039	 39.6847	 1.93765	0.314748	-0.536483
    35	  38.606	 26.8125	 37.9248	0.524313	-1.28366	-0.347825
    36	 39.1238	 22.6241	 37.0625	0.782724	 0.96699	-0.578884
    37	 23.2656	 37.6423	 37.5473	-0.280589	 1.36675	0.265797
    38	 24.2574	 37.9227	 36.5347	0.0630998	  1.0005	-0.725406
    39	 23.9168	 38.8278	 35.4827	 0.41399	-0.127058	-0.149478
    40	 22.5262	 39.0717	 35.2556	0.316149	-0.168182	0.194648
    41	 21.5299	 38.3018	 35.9068	-0.469363	0.263634	0.124527
    42	 21.8955	 37.9104	 37.2234	-0.504776	0.177385	-0.349209
    43	 24.9917	 37.1821	 36.3104	-0.611211	-1.02136	0.430147
    44	  21.382	 38.3662	 38.0656	-1.12931	 1.85544	-0.515312
    45	 24.5583	 39.7211	 35.5556	 1.22208	 1.23759	-1.84937
    46	 21.1912	 37.4512	 35.2846	-3.32658	-0.804523	 3.99515
    47	 22.2624	0.140424	 35.0787	 2.29269	-1.45792	-0.771673
    48	 23.4949	 37.9459	 38.5722	-2.38271	-5.41268	 2.79615
    49	 35.2939	 23.0813	 35.0969	0.213302	-0.038531	-0.169813
    50	 34.7806	 22.1845	 34.0924	0.00170802	0.746349	-0.0461779
    51	 33.4031	 22.1268	 34.0453	0.790716	 0.45871	-0.209234
    52	  32.599	  23.209	 34.2601	-0.017266	0.417176	-0.119933
    53	 33.1224	 24.3158	  34.986	 0.43392	-0.523133	-0.0863111
    54	 34.4603	  24.151	 35.4664	0.098414	0.464927	0.505468
    55	 35.4378	 21.6463	 33.4743	0.601373	0.638838	-0.971584
    56	 34.5857	 24.5273	 36.4706	-1.46205	-2.00986	-2.23907
    57	 32.8822	  21.176	 34.1346	0.924529	 1.48686	-0.00552994
    58	 32.9714	 25.2913	  34.473	   -2.23	 2.12329	-0.482437
    59	 31.5796	 22.9311	 34.6354	0.789682	-1.52967	-1.11306
    60	 35.7229	 22.5809	 35.9258	-1.05259	 1.19016	 3.62491
    61	 29.1589	 28.2706	 20.9857	-0.330835	0.196393	-0.0682329
    62	 28.2215	 28.9733	 21.8334	0.310027	0.245895	0.275031
    63	 26.9865	 29.0881	  21.269	0.311334	-1.21597	-0.907315
    64	 26.3216	 27.9652	 20.6487	0.950359	0.205839	-0.284037
    65	 27.2411	 27.3033	 19.7804	-0.121975	-0.0240995	-1.22115
    66	 28.6122	 27.5505	 19.9211	-0.483812	-0.536723	0.784838
    67	   28.37	 28.6187	  22.837	0.875649	-2.78875	 0.34777
    68	 29.1692	 26.7818	 19.4705	  2.7633	-0.483118	-2.29773
    69	  26.369	 29.9579	 21.2853	 1.89351	-1.15201	 1.67737
    70	 26.9578	 27.2388	 18.7091	 0.37293	0.647108	 -1.0509
    71	 25.8756	 27.2338	 21.2907	 1.51536	-0.0626844	-1.91308
    72	 30.0616	 28.8791	 20.8211	 3.38485	 2.55833	0.303066
    73	 5.87544	 27.0839	 12.5627	-0.226709	-0.797321	0.209956
    74	 6.19818	 25.9003	 11.7989	-0.227758	0.268772	0.412582
    75	 6.33331	 26.1403	 10.4266	-0.619901	-0.844177	0.126838
    76	 5.53424	 27.1322	 9.84475	-0.818842	-0.0746661	-0.892383
    77	 4.97402	 28.2093	 10.6215	-0.970772	-0.480398	-0.43363
    78	 5.12106	 28.1363	  11.972	0.430364	 -0.6204	-1.22489
    79	 5.57461	 25.0582	 12.0719	-1.11183	-2.60504	0.436767
    80	 5.13179	 29.0719	 12.5705	-0.466809	-0.24513	0.457098
    81	 7.21583	 25.9195	 9.90399	-0.571201	-0.298442	 2.30196
    82	 4.04607	 28.6698	 10.2363	-1.83398	-2.61436	 4.20323
    83	   4.785	  26.671	 9.17413	 2.48558	0.323832	-0.136874
    84	  6.8357	 27.4592	 12.9671	-1.47175	 0.19216	-1.17607
    85	 16.9151	 27.9127	 33.0385	-0.119977	0.149348	0.687824
    86	 16.9701	 28.8934	  34.021	0.496213	-0.149412	0.126562
    87	  18.098	 29.7554	 34.1923	0.184264	0.627714	 0.24156
    88	  18.811	 30.0006	 33.0022	-0.140969	-0.150641	0.0965539
    89	 18.7263	  28.995	 32.0154	-0.0739792	-0.130456	-0.294908
    90	 17.6871	 28.1073	 31.8872	-0.809865	-0.723531	-0.939158
    91	 16.0638	  29.463	 34.1246	 2.15187	 -2.0229	 3.41713
    92	 17.1523	 28.2516	  30.942	-0.322471	 0.52201	0.139684
    93	  18.778	 29.3935	 34.9763	-1.38208	-1.40944	-1.44267
    94	 19.7051	 28.7719	 31.5602	-0.274568	 2.02733	-1.17656
    95	 18.7288	 31.0695	 32.6698	 2.95174	-1.60417	-0.0161305
    96	 16.9072	 26.8945	 33.3479	 2.07405	0.530952	-2.27141
    97	 20.9881	 35.2211	 20.9794	0.374448	-0.755754	0.612971
    98	 22.3129	 34.9249	  20.539	-0.0332212	-0.828706	0.345401
    99	 22.5951	 34.6933	 19.2332	0.286397	0.657987	 1.28513
   100	 21.5503	 34.5679	 18.2585	0.187081	0.268154	-0.293679
   101	 20.2406	 34.9982	 18.6332	0.345651	0.105219	0.255263
   102	 19.9595	 35.3474	 19.9769	-1.00944	-0.359691	0.0145734
   103	 22.7713	 34.1723	 21.1905	-2.36086	 3.06962	-1.07796
   104	 18.9923	 34.8594	 20.2935	-1.52434	-3.63217	-1.87638
   105	 23.4868	 35.1975	 18.8721	 -2.0146	0.445423	-0.900806
   106	 19.8749	 35.7262	 17.9711	-0.989264	-0.0862013	 1.72316
   107	 21.5029	 33.5657	 17.8911	-1.33313	 -2.5653	-1.47206
   108	 21.0344	 36.1459	 21.6147	-0.197149	-1.06737	-0.0915113
   109	 22.2418	 29.3244	 3.10582	0.356882	-1.36712	-0.00903839
   110	 23.1033	 29.7429	 2.05007	-1.00454	0.602318	0.656263
   111	 24.3996	 30.2492	 2.41032	-0.237557	-0.681747	0.208608
   112	 24.7606	 30.3544	  3.8108	0.552518	0.687211	-0.154389
   113	 24.0114	 29.7472	 4.84233	-0.38672	0.636497	-0.938462
   114	 22.7329	 29.2104	 4.44578	-0.794433	-0.0037652	0.679221
   115	 22.5922	 30.4929	 1.46185	 2.67429	0.469456	0.0981433
   116	  22.323	 28.4313	 5.02757	0.849676	  3.7055	 2.22922
   117	 24.8924	  30.928	  1.7486	 2.30334	0.409176	-0.82962
   118	 24.6226	 29.2188	 5.52493	-3.01419	0.943402	0.515404
   119	 25.0939	  31.357	 4.05366	 0.28245	-1.23761	 0.98555
   120	 21.3282	 29.9789	 3.08693	-0.767405	-5.62461	 1.52652
   121	 20.7801	0.793922	 8.65738	-0.239472	0.592372	-0.332423
   122	  21.171	  39.927	 9.70466	0.524615	-1.17268	 0.28311
   123	 20.6211	0.0344447	 10.9529	 1.13424	-0.278908	-0.112605
   124	  19.236	0.330917	 10.9746	-0.510943	0.315261	0.149693
   125	 18.6589	0.933451	 9.86858	-0.134074	-0.0808501	-0.138651
   126	 19.4362	 1.26268	  8.6908	-0.840723	 0.13016	0.369697
   127	 21.7816	 39.0462	 9.43604	 1.53302	 -2.2635	-1.20483
   128	 19.2067	 2.28183	 8.43029	-1.18537	0.135082	 3.25135
   129	 21.2427	0.429078	  11.751	-1.94759	-0.858534	0.853301
   130	  17.675	0.474034	 9.66614	 -1.5068	 1.50701	-2.19092
   131	 18.6538	0.0766139	 11.8142	-4.33605	 1.32447	 1.26804
   132	 21.5712	 1.46896	 8.41972	-2.12709	-0.437676	-1.81484
   133	 16.0183	 22.5185	  29.531	-0.215059	-0.611372	 0.14044
   134	 16.1241	 22.8095	 28.1494	-0.214361	-0.488508	-0.564137
   135	 16.9965	 22.1887	 27.2728	0.271084	0.00530997	-0.518013
   136	 18.2354	 21.8006	 27.9198	-0.169298	-0.300121	-0.226786
   137	  18.107	 21.3897	 29.2329	0.388926	-0.120213	-0.850169
   138	 17.0506	 21.8535	 30.1097	0.770696	0.899598	 0.76692
   139	 15.2065	 23.2917	 27.7343	 0.33818	0.181645	-0.889937
   140	 17.4162	 22.3081	 31.0317	-2.04487	-0.665761	-0.431683
   141	 16.6909	 21.4776	 26.5232	-1.33179	-0.537333	-1.93622
   142	  18.924	 20.8995	  29.733	-1.72299	-1.60315	-1.09693
   143	 19.0109	 22.5713	 27.6499	 2.12114	 -1.0297	0.379286
   144	 15.0374	 22.0628	 29.6884	-1.44898	-2.11875	0.869765
   145	  15.015	 29.4668	 18.6474	0.559302	0.301499	-0.133056
   146	 14.4006	 29.5875	 17.4495	0.00373538	-0.457308	-0.0473413
   147	 14.5872	 30.6259	 16.4622	0.425036	0.0756426	-0.448635
   148	 15.2278	 31.7218	 16.9227	-0.0642113	-0.486651	0.840737
   149	 16.1991	 31.4823	 17.9572	-1.02476	0.773264	-0.069224
   150	 16.0202	 30.4758	 18.9207	-0.573851	-0.226643	 0.30261
   151	 13.3823	  29.266	 17.4026	 2.80432	0.579882	0.144831
   152	 16.9194	 29.9731	 19.1517	0.683819	-0.0771329	-1.15169
   153	 14.9236	 30.2508	 15.4547	-1.32377	-1.79378	0.348892
   154	 16.4231	 32.4297	 18.4362	-0.583076	0.378466	 2.10919
   155	 15.5764	 32.5312	 16.2703	 3.63747	 2.08819	-0.323362
   156	 14.3487	 29.3311	 19.5323	-3.51842	-3.81373	 1.93284
   157	 39.4789	 28.1156	 7.68968	0.319823	 1.42282	0.103575
   158	 39.7155	 27.0184	 6.78782	-1.16119	-0.679034	 1.29925
   159	0.071648	 25.7639	 7.36812	0.0535432	-0.346791	-0.00671526
   160	0.211819	 25.6177	   8.755	0.397244	0.180933	0.637371
   161	  39.697	  26.675	 9.59481	0.905726	-0.163045	0.0429536
   162	 39.7778	 28.0143	 9.05356	-0.591119	-1.17335	0.0698246
   163	0.383812	 27.1961	 5.97336	-0.528311	 2.82739	-1.16286
   164	0.796217	 28.3997	 9.31002	0.456239	-0.193042	 2.44703
   165	 39.4796	 24.9438	  6.9347	0.839863	-0.0628679	-0.681013
   166	 38.8277	 26.4709	 10.1873	0.412456	 3.20783	  1.5312
   167	 1.22314	 25.3213	 9.12531	 1.65756	 -1.8648	 1.48618
   168	  38.448	 28.4365	 7.58974	0.377256	0.403159	-2.79357
   169	 14.8245	 35.5431	 33.5145	-0.749234	-0.829427	0.0314611
   170	 14.2367	 35.3979	  32.212	0.0466408	0.0668212	-0.41755
   171	 13.8361	 34.0204	 32.0401	-0.417925	0.0775144	-0.431322
   172	 13.2904	 33.4088	  33.121	0.134921	-0.768567	0.890083
   173	  13.265	 33.9886	 34.4341	0.00924045	-0.568637	-0.564659
   174	 14.2796	 34.9255	 34.6638	0.140651	-0.590711	 1.41812
   175	  13.399	 36.1067	 32.0541	 0.59809	 1.40447	-0.56019
   176	 14.9543	 34.6062	 35.4564	-1.44468	-1.04457	0.213219
   177	 13.2037	 33.9213	 31.1259	-0.260253	-0.817546	  1.1898
   178	 12.2417	   34.34	 34.7117	0.996926	 1.06357	-1.31558
   179	 12.9078	 32.4188	 33.0021	 1.25638	 -4.2182	-0.907917
   180	  15.847	 35.8203	 33.5816	-0.916085	-4.09822	0.857378
   181	 25.9789	 6.28271	 33.6293	0.496606	0.283837	-0.755177
   182	 26.2874	 7.64451	 33.8493	0.426463	-0.699914	-0.0970699
   183	  25.494	 8.37426	 34.8205	-0.194298	 0.20759	-0.0239716
   184	 24.6564	 7.64589	 35.7345	0.642523	-0.639047	0.485113
   185	 24.8374	 6.24558	 35.8017	-0.34578	0.797426	-0.201383
   186	 25.6786	 5.64098	 34.8925	 0.10626	0.761892	0.217893
   187	 27.3544	 7.94004	 33.9203	-1.09538	-0.386887	-0.652063
   188	   26.58	 5.13251	 35.2731	-1.27726	 -1.7963	-3.00595
   189	 24.9771	 9.16775	 34.2493	-2.37148	0.0935327	-4.90072
   190	 24.8939	 5.83964	 36.8302	 1.14974	-1.50323	  3.0795
   191	 24.5999	 8.05015	 36.7747	 1.32619	0.970891	-0.127372
   192	 26.5536	 5.69332	 32.9409	 1.48132	 2.16771	 3.20708
   193	  28.983	 29.5406	 38.3278	0.496713	-0.329702	 0.45452
   194	 28.4013	 30.6802	 37.7054	0.514818	-0.507107	0.415068
   195	 28.8803	  31.887	 38.2789	0.743497	0.690698	0.0148257
   196	 29.9528	 31.6942	 39.1495	 -0.3561	-0.152445	0.313223
   197	 30.8438	  30.665	 39.1795	-0.288796	0.502271	-0.34811
   198	 30.3055	 29.4322	 38.6862	0.125585	0.257111	 0.18856
   199	 27.3582	 30.5797	 37.6063	0.367323	-0.0611513	0.269778
   200	 30.6331	 28.5804	 39.2393	-0.485208	-0.158558	-0.0132833
   201	 29.1033	 32.6747	 37.5191	0.525074	-1.74994	 1.99076
   202	 31.4909	 30.5471	0.0331829	0.265349	-1.23384	-1.02034
   203	 29.8521	 32.2324	0.0628997	-2.61211	-1.01741	-1.36342
   204	  28.594	  28.583	 37.9588	-0.714971	-0.00648559	-0.267251
   205	 28.3324	 9.09924	  39.159	-0.121372	-0.665046	0.376418
   206	 28.8217	 10.4328	  39.082	0.0870873	0.673187	-0.203813
   207	 27.8801	 11.5267	 39.2122	0.728339	-0.542661	-0.335494
   208	  26.547	 11.2302	 39.5757	-0.290077	0.729913	-0.382819
   209	 26.0303	 9.91957	  39.362	 1.04288	-0.152254	0.562518
   210	  26.917	 8.83951	 39.1443	-0.300129	-0.422012	-1.05302
   211	 29.4984	 10.5147	 38.2049	-2.40409	 2.38629	 1.10256
   212	 26.7354	 7.89365	 39.6447	-2.03823	-0.455675	 0.32546
   213	 27.8952	 12.1469	 38.3533	-1.94517	-1.39215	-1.81028
   214	 25.2807	 9.91942	 38.6226	 1.34312	0.674859	-3.49478
   215	 26.2134	 11.6976	0.528224	-1.74863	0.521496	 4.75507
   216	  28.916	 8.39629	 39.8159	 2.87972	-0.118471	 3.55098
   217	 18.2164	 5.39349	  1.4462	-0.0954515	0.432422	-0.314958
   218	 16.9133	  5.9853	 1.60569	-0.973981	-0.489835	0.0577829
   219	 16.7396	   7.338	 1.74562	-0.72081	-0.362561	-0.933014
   220	  17.832	 8.16776	 2.18802	0.0483054	-0.0807708	-0.304897
   221	 19.0984	 7.56715	 2.09922	0.249178	-0.908367	-0.0453396
   222	 19.3152	 6.20525	 1.67969	0.0549755	-0.0357159	-0.628513
   223	 16.3186	 5.29929	 2.25104	 -0.7896	 1.08804	-0.492575
   224	 20.1981	 6.03592	 1.13505	-0.477885	-3.38439	-1.37388
   225	 16.1792	  7.8471	0.967504	-0.908896	 2.67789	0.0300539
   226	 19.8535	 8.24387	  1.7308	0.204499	-0.876135	-0.821384
   227	  17.686	 8.60875	 3.19459	 0.14821	0.196194	-3.28225
   228	 18.3046	  4.3183	 1.73323	-1.37597	0.190823	-1.87686
   229	 4.25939	  23.739	 18.2457	-1.02475	-0.432954	0.248388
   230	 4.13298	 22.4294	 17.7979	-0.680781	-0.377963	0.0017118
   231	 2.82335	 22.1041	 17.3599	0.371436	0.824706	0.190072
   232	 1.64412	 22.6585	 17.7712	-0.300453	0.156534	-0.546599
   233	 1.79669	 24.0045	 18.2541	-0.148961	-0.568444	0.644389
   234	 3.07648	 24.5011	 18.4637	0.728439	0.430952	-0.533759
   235	 4.89722	 22.1824	 17.1029	 3.40363	-0.488626	-1.57123
   236	 3.23269	 25.5342	 18.1167	0.326515	  1.0089	-2.92421
   237	 2.76598	    21.4	 16.5647	0.408049	 2.16338	  1.1088
   238	 1.16805	 24.2362	    19.1	-1.68272	-0.534372	 2.90339
   239	 1.14389	 22.0874	 18.5248	-2.18899	  1.7897	0.123944
   240	  5.1228	 24.2764	 17.8226	-2.16957	-3.02509	-0.16883
   241	0.909955	   14.51	 28.5102	0.0242854	-0.597979	-0.0454057
   242	 1.94574	 13.9168	 29.3089	 0.21474	0.180358	-0.626688
   243	 2.65871	 14.6631	 30.2895	-1.17493	-0.447877	0.142204
   244	 2.41584	 16.0612	  30.361	0.150333	-0.313608	0.398168
   245	 1.63415	 16.7273	 29.3875	0.742774	-0.0343041	0.0875105
   246	0.816161	 15.9268	 28.5878	-0.175208	-1.21484	-0.392071
   247	 2.51731	 13.1801	 28.7714	-2.57706	 1.35797	0.0660048
   248	0.219102	 16.4096	 27.8065	-1.41447	-0.0935529	-0.576698
   249	 3.69426	 14.4174	 30.2933	0.316257	 1.34476	-2.25853
   250	 2.03624	 17.6541	 28.9642	-1.64633	0.685157	-0.363849
   251	 2.31902	 16.4428	 31.3641	  2.8079	-0.67294	-1.09477
   252	0.0112241	 13.9035	 28.6586	 0.75167	 0.70974	 1.09265
   253	  22.845	 17.7129	  11.648	-0.692743	-0.149305	-0.80143
   254	 24.1623	  18.217	  11.387	0.401552	-0.152072	-0.234533
   255	 25.1622	 17.8705	 12.3806	-0.79832	-0.162325	-0.765128
   256	 24.9446	 16.7902	 13.2882	0.840443	0.430471	-1.15573
   257	 23.8501	 15.9399	 13.0363	  1.2313	0.652707	0.545267
   258	 22.7299	 16.3964	 12.2486	-0.0146755	0.466559	-0.200628
   259	  24.063	 19.2858	 11.1792	-1.83959	-1.81662	0.522227
   260	 22.2826	 15.6403	 11.5764	0.126382	0.490202	 1.72076
   261	 26.1499	 17.7512	 11.8768	-0.661903	 1.87016	 2.63755
   262	 23.4445	  15.588	  14.006	-1.11864	 3.18394	-0.168641
   263	  25.904	 16.2229	 13.3101	-0.743973	0.741943	 2.76794
   264	 22.0684	 18.3994	 11.9056	-0.79299	 2.00882	0.0456204
   265	 10.7286	 12.4151	 23.5561	0.466083	-1.22853	0.213146
   266	 11.9327	 12.1613	 22.8941	0.236225	-0.580816	-0.533023
   267	  12.874	 13.2584	 23.0158	0.340518	0.0574094	-0.190968
   268	 12.5116	 14.5839	 23.1324	 0.83925	-0.628434	-0.0346586
   269	  11.123	 14.8765	 23.2435	-0.70735	 1.45578	0.626012
   270	 10.2913	 13.7856	 23.5945	 0.16397	0.988189	-0.480336
   271	 11.8365	 11.7729	 21.9019	-1.02989	-0.515782	-1.77658
   272	  9.2696	 13.9686	 23.2799	-3.51362	-1.81027	-0.17268
   273	 13.8308	 12.8986	 23.4629	0.224728	-5.05715	 -4.7493
   274	 10.6523	 15.4241	 22.4373	 2.26979	-0.349986	 -1.1343
   275	 13.2018	 15.3794	 22.9567	-3.31709	 6.33706	-1.45009
   276	 10.6616	 11.9651	 24.5382	 2.27417	0.0678445	0.921442
   277	 4.36062	 36.0278	  18.178	-0.385446	0.641549	-0.559266
   278	 3.14761	 35.4796	 18.5985	0.138252	0.579976	-0.263684
   279	 2.84952	 35.4226	  19.991	-0.810449	0.782166	-0.23419
   280	 3.71098	 36.0889	 20.9084	-0.110622	0.522492	0.350696
   281	 4.89764	 36.7451	 20.4074	-0.417347	-0.678111	-0.572289
   282	  4.9444	 37.0527	 19.0181	-0.113604	0.404154	 1.47067
   283	 2.28305	 35.4352	 18.0053	-1.27909	 3.78131	-0.0348848
   284	 5.73594	 37.6587	 18.6161	-1.37527	0.413833	-6.12566
   285	 1.77227	 35.4448	 20.2715	 2.66487	-3.44429	 3.61989
   286	 5.75224	 36.2885	 20.8687	 2.19846	 3.00891	 1.33674
   287	 4.03675	 35.3664	 21.6424	 2.92792	 1.70679	  2.2961
   288	 4.72036	 35.9555	 17.1693	-0.200775	-3.62821	-0.0454872
   289	 21.8597	 2.44391	 27.4929	0.185181	-0.748388	-0.671244
   290	 23.2436	 2.43695	 27.3005	-0.203426	-0.290736	-0.135762
   291	 23.9075	 3.65433	 27.5526	-0.43384	-0.218658	-0.155737
   292	 23.2292	 4.92736	 27.4888	0.642375	-0.0280688	-0.00853163
   293	 21.8102	 4.84304	 27.6079	-0.131685	-0.553497	0.0506153
   294	 21.1783	 3.61237	 27.3378	0.394578	-0.830893	-0.0890104
   295	 23.6766	   1.801	 26.5721	-1.31791	 2.15553	 1.50218
   296	 20.2071	 3.74034	 26.9462	-0.840953	-0.0888645	-0.439388
   297	 24.6037	 3.61548	 28.4132	-1.73504	 1.49974	-0.868752
   298	 21.2113	 5.74165	 27.4731	-0.630423	0.171038	 1.17969
   299	 23.7622	 5.60637	  28.164	 1.03719	-1.02142	-1.00462
   300	 21.4729	 1.90984	 28.4002	 1.70406	 3.46716	-0.55758
   301	  20.648	 34.6293	  8.0118	-1.05038	0.335231	0.267603
   302	  19.837	 35.2924	 9.00384	0.611606	 1.86515	 0.24645
   303	 19.3208	 36.5393	 8.67313	-0.583626	-0.560127	 -1.4091
   304	 20.0733	 37.3859	 7.79819	0.0442276	-0.75728	0.506669
   305	 20.9906	 36.7721	 6.90452	0.592998	-0.386664	-0.360795
   306	 21.0903	 35.3646	 6.84075	0.247289	-0.935926	-0.149427
   307	 20.2544	 35.1888	 10.0026	-1.09415	-0.617071	 1.44144
   308	 20.8232	 34.8929	 5.91631	-1.84343	0.169307	 1.15122
   309	  18.217	  36.551	 8.44721	0.803584	 1.60241	 2.94691
   310	 21.9901	 37.1991	 6.80409	 2.53207	-0.946069	-5.34295
   311	 19.8888	 38.4314	 7.75524	  3.8252	-3.43913	-0.0206339
   312	 20.0434	 33.7899	 7.55848	-0.0761545	 2.58532	 2.19435
   313	 33.1166	 19.7829	 23.6058	-0.933489	-0.0780923	-0.546913
   314	 31.8496	 19.2855	 23.2025	0.963003	-1.13851	-0.563282
   315	  31.862	 18.9116	  21.823	-0.932014	0.210574	-0.971401
   316	  32.419	 19.8088	 20.8477	0.207779	0.465161	0.524651
   317	 33.5914	 20.5081	 21.2926	-0.587084	-0.446403	0.181488
   318	 34.0239	 20.1678	 22.5644	0.099288	-0.0736164	  1.7395
   319	 30.9541	 19.8557	  23.484	-1.30117	 2.34683	-0.963182
   320	 34.7737	 19.3335	 22.5205	 4.42781	-2.69535	-1.43203
   321	 32.0431	 17.8831	 21.5628	-0.0620847	-1.05186	 -2.8415
   322	 33.3141	 21.5845	 21.2829	 2.64501	 1.38187	-0.723795
   323	 31.6823	 20.5066	 20.5286	 1.99767	 -1.3291	 1.32015
   324	 33.6712	 19.2242	 24.3938	-0.0793138	-0.899202	 2.05199
   325	  4.7961	 4.18489	 39.8432	0.531801	0.314287	 0.33824
   326	 6.13969	 4.59937	 39.5674	-0.294312	-0.214358	-0.751896
   327	 7.26169	 3.82497	0.0604654	0.903375	-0.250503	0.464082
   328	 7.04479	 2.51287	0.307348	-0.421258	0.00233889	0.487087
   329	 5.78859	 1.95307	 39.9163	-0.206397	0.319808	0.441834
   330	 4.63698	 2.80232	0.0910025	0.0503899	0.547683	-0.046475
   331	 6.19523	 4.75309	 38.4829	-0.28067	0.0713788	 2.80122
   332	 3.82245	  2.3986	 39.5429	0.777571	 1.32552	-2.37027
   333	 8.19538	 4.35655	0.180023	 4.19202	  0.3803	-0.118268
   334	 5.86962	 1.45344	 38.9898	-1.45405	-1.08118	-0.707927
   335	 7.73911	 1.82925	0.769097	0.371784	-1.50839	-1.90403
   336	  4.3672	 4.80917	0.665711	-0.75842	0.709371	0.0272002
   337	 6.71929	 9.00906	 4.17175	 1.09697	-0.0634093	-1.02399
   338	 6.79662	 10.4371	 4.15543	-0.58073	0.0403302	0.500218
   339	 7.52584	 11.0427	 5.25187	-0.301795	0.140606	0.184729
   340	 8.69425	 10.3219	 5.71897	-0.55714	-0.0820946	0.0156395
   341	 8.79109	 8.90741	 5.41334	-1.05359	0.909614	-0.487009
   342	 7.66055	 8.24753	 4.96784	0.0924171	0.182577	-0.220933
   343	 5.75835	 10.8395	  4.2794	-0.721933	 2.36113	 1.57046
   344	 7.17418	 7.49869	 5.60938	-1.68102	0.853304	-2.89398
   345	  7.6416	 12.1117	 5.18609	 1.14502	 3.47217	 1.95582
   346	 9.79088	 8.65242	 5.00775	 2.00225	0.135137	0.954784
   347	 9.63711	 10.8165	 5.65443	0.653167	 3.31366	0.122207
   348	 6.82678	 8.57493	 3.15223	-0.371084	 2.57938	 2.28104
   349	 36.1344	 23.9465	 24.8866	0.0952379	0.614403	0.380742
   350	  35.208	 23.3226	 25.6551	-0.578099	0.833726	0.117652
   351	 35.4562	 21.9838	 26.1304	0.0885369	-0.835638	-0.171064
   352	 36.6212	   21.32	 25.8166	-0.0982225	 1.13298	 1.23796
   353	 37.7221	 22.0557	 25.3616	-0.118725	0.0616421	0.444333
   354	 37.3668	 23.2254	 24.6618	-0.0145658	 1.03147	 0.14584
   355	 34.6886	 23.9992	 26.3412	-2.44703	-0.0729085	 2.16137
   356	 37.6328	 23.1888	 23.6472	-0.22329	-2.99792	 1.60507
   357	 35.0168	 21.7701	   27.08	-4.56002	-2.14544	-0.268545
   358	 38.4253	 22.3159	 26.1276	-5.13435	 2.90854	-0.232394
   359	  36.429	 20.4247	 25.2603	0.299021	 1.95394	0.429573
   360	 35.7793	 24.4229	 23.9741	 2.61851	-0.0198167	-2.86516
   361	 12.2687	 14.1693	 38.3356	-0.283332	0.387705	-0.418077
   362	 13.1021	 15.3303	   38.26	-0.00350229	-0.0770295	0.0227995
   363	 14.3169	 15.4028	 39.0492	-0.365328	-0.563756	-0.510872
   364	 14.8416	 14.1888	 39.6412	0.361421	0.608687	-0.0572944
   365	 14.0707	 12.9646	 39.5822	-0.531684	0.178207	 1.11232
   366	 12.8174	 12.9928	 38.8857	 0.73805	0.219107	0.105171
   367	 13.1904	 15.8631	 37.3463	 1.53727	-1.29078	-2.93536
   368	 12.7517	 12.0998	 38.2608	0.873485	0.253902	-0.504085
   369	 14.3312	 16.1619	 39.8355	-0.441285	-0.351598	-1.64014
   370	  14.021	 12.4665	0.517842	-0.651026	 3.85195	-0.548805
   371	  15.908	 14.0293	 39.5984	0.120962	0.503423	  3.2572
   372	 11.3194	 14.4566	  38.828	0.210961	-1.09268	-0.684695
   373	 39.2493	 33.9634	 1.42487	0.176875	  0.5218	-0.528309
   374	 39.2536	 32.5685	 1.81187	-0.0856983	0.0436965	0.0895366
   375	 37.9636	 31.9096	 1.81809	0.297021	-0.468411	-0.0824579
   376	 36.7735	 32.7048	 1.86245	-0.982889	-1.18562	-0.46176
   377	  36.827	 34.0664	 1.77581	0.0437663	0.157814	-0.678944
   378	 38.0501	 34.6717	 1.30104	-0.0541727	0.0546756	-0.729366
   379	0.0218695	 32.0977	  1.2228	-2.26908	-0.634353	-0.803406
   380	 37.9078	 35.1947	0.374224	-1.04846	0.171768	0.770577
   381	 37.8652	 31.2539	 0.95198	 2.16406	0.592138	-0.335037
   382	 36.4273	 34.5467	 2.67937	-1.42043	-0.953174	0.0453145
   383	 35.9651	 32.2513	 2.46596	-0.601816	 2.39969	-0.373589
   384	0.0149765	 34.0745	0.639319	-0.898495	-3.87122	0.706384
   385	 27.5215	 34.2871	 15.1055	-0.142022	0.116366	-0.55727
   386	 26.4014	 34.0704	 15.9147	-0.123495	0.311857	-0.496148
   387	 25.8807	 32.7907	 15.9624	0.190921	0.784433	0.0658772
   388	 26.4242	 31.6487	 15.2557	-0.688497	-0.237442	0.243338
   389	 27.4837	 31.9971	 14.3361	-0.301885	-0.712811	0.607296
   390	 28.1999	 33.2108	 14.4265	-0.473965	0.530233	0.100036
   391	 25.6508	  34.906	 16.0017	-2.91243	-1.47521	 1.57046
   392	 29.1365	 33.0436	 14.8761	-2.67639	 2.28919	   1.252
   393	 25.7581	 32.4227	 17.0103	-0.241058	 1.84048	-0.214829
   394	 27.6271	  31.318	 13.5174	-0.834984	 2.60606	 2.48633
   395	 26.6324	 30.8173	 15.8882	-1.75172	 1.70034	-1.03949
   396	 27.2692	 35.0574	 14.3681	-4.16049	-0.373212	0.282621
   397	 9.79555	 38.4374	 24.1409	-0.79261	-0.623022	-0.677576
   398	  9.8175	 38.4179	 25.5653	-0.737944	-0.566036	-0.501861
   399	 10.9947	 38.4532	 26.3196	0.231978	-0.246085	-0.713711
   400	 12.2047	 38.7692	 25.5854	 0.60098	-0.00663401	0.470685
   401	 12.2436	 38.7196	 24.1565	-1.03744	0.0386438	-0.538893
   402	 11.0192	 38.4775	 23.4779	-0.350638	-0.601506	-0.0875113
   403	 8.93352	 38.8514	 26.0928	  1.9755	0.0533627	-0.295042
   404	 11.1513	 37.8869	 22.5849	-0.720029	-0.672441	0.442483
   405	 11.1096	 37.6626	 27.1082	-0.788588	 3.14024	-0.377392
   406	 13.1231	 38.2478	 23.8187	-3.14581	-0.703582	 1.90286
   407	 12.5077	 39.7625	 25.9845	 3.05172	-0.94814	-4.79418
   408	 9.13919	 39.2883	 23.8011	 1.42529	-2.14102	0.673993
   409	 27.4823	 37.7223	 12.1284	0.462835	-0.69177	0.533954
   410	 28.2993	 37.9514	  10.952	-1.18473	-0.812379	-0.00805473
   411	 29.1213	 39.1018	 10.9851	-0.141123	0.773123	-0.596619
   412	 29.5746	 39.4922	 12.2996	0.876866	-0.237285	-0.171427
   413	 28.7095	 39.3533	 13.3787	0.997175	0.770584	0.030695
   414	 28.0306	  38.097	 13.4108	  1.0528	0.618536	0.766956
   415	  28.838	 37.0344	 10.7822	 -2.1699	-1.15847	-0.232651
   416	  28.558	 37.2731	 13.9173	-1.54251	 2.93345	-1.82272
   417	 29.8113	  39.224	 10.1802	 3.96091	0.0339487	0.310621
   418	 28.2837	0.175179	  13.916	0.387372	-0.262421	-2.18557
   419	 30.6324	 39.5844	 12.3857	-0.573066	 3.42195	0.159836
   420	 26.4756	 38.1243	  12.102	  1.7794	-1.67497	0.978945
   421	 11.3765	 32.0129	 8.83222	0.0521036	-1.10096	0.292941
   422	 11.6416	 30.6963	 9.24335	0.566683	-0.223592	-0.0218668
   423	 11.3934	 30.3334	 10.5698	-0.446936	-0.28508	-0.860262
   424	 11.2896	 31.3269	 11.5608	 0.56574	0.376904	0.191746
   425	  11.505	 32.6763	  11.099	0.452545	-0.0810569	-0.077527
   426	 11.7703	 33.0105	 9.79101	-0.258616	0.197351	-0.584737
   427	 12.4556	 30.1356	  8.8157	-1.64386	 3.60627	 2.49414
   428	 12.2283	 33.9129	 9.46811	 0.89695	-0.807681	-0.512155
   429	 12.0337	 29.4703	 10.8029	0.250322	-0.0593968	0.578514
   430	 10.6476	 33.2543	 11.5062	 3.22091	0.572288	 3.72186
   431	 10.3951	   31.18	 12.1451	-1.81311	 -1.5488	 2.83565
   432	 10.3778	 32.1756	 8.43434	  1.7306	  5.3435	0.00953299
   433	 30.2298	  29.336	   9.571	0.553025	-0.137589	-0.0490701
   434	 31.2474	 28.4344	 9.07921	0.444151	0.0469639	0.756352
   435	 31.5076	 27.1985	 9.75186	  0.4056	0.311218	0.806908
   436	 30.4214	  26.675	 10.4282	-0.0317817	-0.201519	-0.02069
   437	 29.2896	 27.4524	 10.8387	0.243092	0.291179	0.559796
   438	 29.3462	 28.8498	 10.6042	0.336123	0.0115869	0.180539
   439	 32.1868	 28.9845	 9.05172	-2.09711	0.0333101	-3.11829
   440	 29.4912	 29.4093	 11.5525	0.160091	-0.515254	-1.23181
   441	 32.5124	 26.9737	  10.038	 1.57777	0.362131	0.0369803
   442	 28.3391	 27.0744	 10.4542	 2.32001	-1.05021	 3.23236
   443	 30.1091	 25.7473	 10.0268	-1.05687	  4.1796	 4.45035
   444	 29.7499	 29.8925	 8.77706	-0.565894	-1.70673	-0.815577
   445	 16.3216	 20.4407	 21.6936	 0.27811	0.842741	-0.303143
   446	 17.7265	 20.6889	 21.9075	0.221148	-0.377724	0.158969
   447	 18.0104	   21.43	 23.0373	-0.0979501	-0.217911	0.760852
   448	 16.9406	 21.9162	 23.8756	-0.539768	 -0.8172	0.0149435
   449	 15.6682	 21.2904	 23.7697	0.117966	-0.0174606	-0.364099
   450	 15.4221	 20.3386	 22.7606	-0.765924	-0.0714704	-0.205629
   451	 18.3283	 20.6586	 21.0382	 1.89523	-1.54309	-0.544726
   452	 15.2372	 19.3305	 23.0418	0.775082	-1.37703	 3.44855
   453	 18.9026	 21.3112	 23.5952	-1.54355	-5.40839	-2.53145
   454	 14.8879	 22.0293	 23.9657	 2.24735	-0.792924	-1.98913
   455	 16.9063	  23.012	  24.034	-0.464217	 0.23527	 1.49122
   456	 15.8459	  20.969	 20.8751	-1.92315	 1.52188	 1.53383
   457	 15.3819	 17.0834	 11.4016	-0.0258242	0.494789	 1.35293
   458	 16.5486	 17.9042	 11.5447	 0.23138	-0.196082	0.704106
   459	 17.6798	 17.6845	 10.6606	0.00881287	0.173371	0.203393
   460	 17.4909	 16.8592	 9.49856	  0.6367	-0.22217	-0.442459
   461	 16.1241	 16.6704	 9.06614	-0.0776764	0.270334	-0.696656
   462	 15.0759	 16.7152	 10.0632	0.392814	-0.181706	-0.366972
   463	 16.2542	 18.9193	 11.6579	 3.77553	0.985335	-1.44001
   464	 14.2566	 17.3216	 9.59483	 1.74036	-0.366318	 2.08117
   465	 18.2226	 18.5603	 10.4399	-2.96186	-0.940967	-0.313537
   466	 15.9971	 17.3146	 8.20137	-2.06991	-0.582335	-1.37191
   467	 18.1118	 16.0342	 9.30869	0.894547	 -3.2203	-0.463297
   468	 15.6309	 16.1458	 11.9369	  2.8106	0.825393	 1.17831
   469	 20.9068	 19.6258	 38.2011	-0.298812	-0.592019	0.707945
   470	 22.2206	 20.1687	 38.4068	0.375666	-0.713065	0.490829
   471	 22.3411	 21.5065	 38.7071	-0.203933	-0.144842	0.362814
   472	 21.1481	 22.1339	 39.2451	-0.839109	 0.94953	-0.533216
   473	 19.9013	 21.5617	 39.1491	0.620288	0.695173	0.148453
   474	 19.8682	 20.1538	 38.9344	0.187205	-0.944415	0.557377
   475	 23.0546	 19.5009	  38.363	 2.44199	-3.39384	0.847272
   476	 19.5761	 19.6638	 39.8522	-0.113575	-0.140873	-1.62904
   477	 22.8972	 22.1395	 37.9951	 1.83815	-0.263305	-0.142845
   478	 19.0345	 22.0869	 38.8203	-0.00879961	0.754747	-1.51994
   479	 21.3271	 23.1558	 39.4985	 -5.5289	0.187713	 2.93625