ITEM: TIMESTEP
0.006543
ITEM: NUMBER OF ATOMS
1200
ITEM: BOX BOUNDS
0	40
0	40
0	40
ITEM: ATOMS index type x y z
     1	 9.78663	 20.6752	 29.6847	-1.00805	-1.47141	0.0748222
     2	 10.2583	 20.9873	 30.9587	-0.292915	-0.788893	0.280288
     3	 10.8673	 20.0253	 31.7225	-0.312981	 4.02741	-1.46006
     4	 11.0109	 18.7247	 31.2132	 1.84098	 3.58886	-2.73788
     5	 10.5251	 18.3882	 29.9543	 1.21557	-0.626639	0.768135
     6	 9.90396	 19.3912	  29.191	-1.78288	-0.657356	 1.03718
     7	 10.1561	 22.0137	 31.3437	-0.709925	 2.56829	-0.365432
     8	 9.52368	 19.1671	 28.1923	-1.83896	 2.63361	 0.79034
     9	 11.1475	 20.2308	 32.7511	-11.3227	 1.35868	 13.9656
    10	 10.6326	  17.386	 29.5724	  3.6087	 3.83748	 6.88239
    11	 11.4847	 17.9897	  31.816	 7.02831	 1.78241	 4.27868
    12	 9.27774	 21.4493	 29.0723	-7.61967	-3.70327	-2.31973
    13	 38.8592	 33.2493	 33.0805	 3.44983	 1.68954	-1.64322
    14	 39.2435	 34.3397	 33.8765	 -1.1014	 1.28359	 2.04456
    15	   38.68	 35.5849	 33.6526	-2.30481	0.00633225	0.990666
    16	 37.7397	  35.762	  32.652	 2.53988	 1.66792	 4.07795
    17	 37.3293	 34.6806	 31.8687	0.611823	0.488778	-0.764053
    18	 37.8961	 33.4073	  32.111	  1.7473	-1.00418	 2.89725
    19	0.035236	  34.173	 34.6063	 5.27622	-2.88467	-4.70974
    20	 37.6237	 32.5719	 31.4666	-7.05521	 -3.6053	 1.63283
    21	 38.9912	 36.3866	 34.2627	-2.52169	-7.06998	 2.23237
    22	 36.5294	 34.7855	 31.1524	-7.23389	-3.58377	 8.29378
    23	 37.3119	 36.7582	 32.4573	 6.77167	-0.992048	0.510142
    24	 39.2697	  32.263	 33.2377	-1.91454	 6.63907	-1.08359
    25	 39.1542	 23.4727	 37.2839	 1.36311	0.453941	-0.135972
    26	 39.0745	 24.2197	 36.1145	-0.380374	-1.13675	0.267285
    27	 39.2743	 25.5759	 36.1426	 -3.5786	-3.79772	0.559819
    28	 39.5845	 26.2171	 37.3445	-0.185649	-2.10187	-0.69813
    29	 39.6498	 25.4684	 38.5467	-1.06693	-3.10322	 2.57697
    30	 39.4389	 24.1092	 38.4991	0.0350091	0.201199	 1.07607
    31	 38.8826	 23.6878	 35.1443	 5.48239	-0.0752316	0.567477
    32	 39.4661	 23.5367	 39.3975	-8.23521	  5.0257	-0.41925
    33	 39.2117	 26.1566	 35.2041	-5.20756	-9.77215	-0.112758
    34	 39.8528	 25.9908	 39.4356	-2.29004	 7.01876	 3.65187
    35	 39.7514	 27.2869	 37.3905	-2.04394	-7.77766	-1.30032
    36	 38.9878	 22.4273	 37.2739	 1.08815	 3.57812	 2.71939
    37	 23.2228	 37.4334	 37.4685	-0.983929	 2.19082	-0.828102
    38	  24.131	  38.201	 36.7642	-1.47547	 -2.1153	-2.32404
    39	 23.6997	 38.9681	 35.6807	-1.93815	 0.23661	0.139312
    40	 22.3777	  38.907	 35.2974	0.887473	-2.13653	  2.9774
    41	 21.4631	 38.1296	 35.9706	 1.34012	 1.14691	-1.56867
    42	 21.9013	 37.3876	 37.0784	 1.88979	 2.25892	0.818454
    43	 25.1636	 38.1522	 37.0383	 7.11216	-15.2817	 -5.4365
    44	 21.1531	 36.7776	 37.5918	 1.97605	 5.99005	-4.26034
    45	 24.4644	 39.5205	 35.2034	 13.8983	-4.92204	 5.57789
    46	 20.4091	 38.1565	 35.7211	-2.23566	 10.7969	 8.25624
    47	 22.0111	 39.5114	 34.4947	-7.86407	  7.0541	 2.49855
    48	 23.5768	  36.837	 38.3469	-2.22112	 2.10182	-1.05203
    49	 35.3208	 22.9419	 34.8639	-2.43187	-0.366371	 1.58598
    50	 34.7228	 21.8593	 34.2118	-3.15647	 1.60368	0.874013
    51	 33.3868	 21.9257	 33.8628	-1.51888	 1.97863	  1.4717
    52	 32.6347	 23.0621	 34.1526	-0.561976	0.951299	-1.71397
    53	 33.2259	 24.1022	  34.788	-1.22817	-5.81177	-1.70018
    54	 34.5864	 24.0814	 35.1474	-0.0516414	0.380022	0.203012
    55	 35.2788	 20.9777	 34.0184	 4.01083	-9.46533	 4.97627
    56	 35.0257	 24.9391	  35.609	-4.28891	 2.63296	-5.81688
    57	 32.9102	 21.0758	 33.3448	-1.61397	0.902859	-2.17964
    58	 32.7234	 25.0058	 35.0101	 6.53885	 5.19585	-0.891193
    59	 31.6092	 23.1217	 33.8927	-9.02997	 4.77684	-1.86399
    60	 36.3701	 22.8922	 35.0853	-2.84958	-0.871898	-5.77067
    61	 28.9312	 28.4509	 21.1156	 -1.4916	-1.13752	 2.02111
    62	 27.9903	 29.3426	 21.6196	-0.987739	-0.498919	-0.997646
    63	  26.653	 29.2692	 21.2342	-1.18411	 1.72265	-0.131988
    64	 26.2925	  28.272	 20.3257	 5.19699	-1.67498	 1.06602
    65	 27.1953	 27.3889	 19.7932	-1.28456	-1.23043	-0.282723
    66	 28.5249	 27.4845	 20.1875	-2.26116	0.0886633	0.223202
    67	 28.2917	 30.1095	 22.3197	-5.53517	0.492256	-3.01616
    68	 29.2689	 26.7735	 19.7725	-0.434845	-2.96276	-0.703449
    69	 25.9404	 29.9688	 21.6216	 3.00513	-2.20276	 -7.5163
    70	 26.9712	 26.7141	  18.994	 9.33025	 17.8411	-8.38093
    71	 25.2876	 28.1931	 19.9685	0.0303567	-4.07019	-10.4207
    72	 29.9529	 28.5409	 21.3658	 5.80934	  2.9672	-3.62478
    73	 5.95755	 26.7953	 12.7323	0.461363	0.340371	-0.400503
    74	 6.35669	 25.8015	 11.8399	-0.767117	-0.524412	 1.04519
    75	 6.34973	 26.0673	 10.4713	 1.11668	 1.02705	0.871164
    76	 5.91716	 27.2973	 9.99212	-0.596142	 0.42417	0.331177
    77	 5.51447	 28.2946	 10.8905	0.847873	-0.0697563	-0.109485
    78	 5.53472	 28.0199	 12.2663	-0.690716	-4.68502	-0.442384
    79	 6.67524	 24.8184	 12.2169	-4.82071	 3.02794	 4.27083
    80	 5.21415	 28.7785	 12.9516	0.065965	-3.12455	-2.22093
    81	  6.6518	  25.283	 9.77488	-4.46933	-7.55373	 7.00567
    82	 5.16999	 29.2546	 10.5228	 3.16798	-11.9174	 -9.8385
    83	 5.92196	 27.4642	 8.92306	 4.54314	-10.7748	 4.26716
    84	 5.96411	 26.6219	 13.7694	-1.00945	 5.20364	-4.98834
    85	 16.9962	 27.8153	 33.0055	0.375448	 1.89941	-0.703825
    86	 17.1027	 28.7193	 34.0523	0.458731	-0.0186849	-1.93535
    87	 18.0969	 29.6911	 34.0409	-1.45502	0.362672	 1.26819
    88	 19.0108	 29.7439	 32.9726	 1.29532	-0.459585	0.464016
    89	 18.8899	 28.8509	 31.9027	-0.814347	 3.64016	-2.32571
    90	 17.8829	 27.8653	 31.9564	-0.324908	 1.38646	 1.82611
    91	 16.4151	 28.6413	 34.9053	 1.74076	-4.98008	 2.17369
    92	 17.8268	 27.1669	 31.1073	 3.36999	  3.2111	-2.87739
    93	 18.2249	 30.3738	 34.8274	 5.52515	-3.68392	-4.22439
    94	 19.5926	 28.9146	 31.1219	-4.35859	 3.81057	 7.28743
    95	 19.7776	 30.4688	 32.9383	 3.30024	 7.24406	 5.13564
    96	 16.1885	 27.0592	 33.0391	-0.892661	    6.66	 5.03457
    97	 21.0996	 35.6678	 20.8306	-3.08422	-0.677369	0.0198914
    98	 22.4044	 35.2877	 20.4231	0.103462	-0.953586	-0.765602
    99	 22.6143	 34.7345	 19.1679	 1.12006	-0.54892	 1.23358
   100	 21.5454	 34.5518	 18.3038	 2.10481	-1.18085	 1.68817
   101	 20.2385	 34.9537	 18.7039	-1.40822	 2.41281	 1.49652
   102	 20.0489	 35.4876	 19.9551	0.950422	-0.653987	-0.604581
   103	 23.2216	 35.4196	 21.1103	 -10.344	-1.41214	-6.24815
   104	 19.0804	 35.8008	 20.2987	 5.75643	 2.42431	 4.83279
   105	 23.6347	 34.4872	 18.8512	 3.26394	 -5.4605	-10.7392
   106	 19.4222	  34.859	 18.0104	  2.2207	 9.18048	-1.32578
   107	  21.676	 34.1103	 17.3265	-2.10081	-2.99791	 2.04741
   108	 20.9582	 36.1512	  21.761	-0.378101	 7.53286	-7.50157
   109	 22.2202	 29.3577	 2.86413	-1.04675	  1.7673	-1.37655
   110	 23.0719	 30.1654	  2.1146	 2.66954	-1.40328	-0.00664633
   111	 24.2322	 30.6525	 2.66669	-0.976363	 -1.2701	-1.27548
   112	 24.5708	 30.3364	 3.98854	-2.95436	0.567254	-0.969817
   113	 23.7488	 29.5117	 4.74842	0.998997	0.339655	-0.691173
   114	 22.5625	 29.0201	 4.18061	0.948187	-0.382125	-0.75041
   115	  22.793	 30.4282	 1.07062	 -1.6208	-3.84151	 0.84803
   116	 21.9292	 28.3386	 4.74928	 4.19754	-7.54008	-3.48517
   117	 24.8944	 31.2647	 2.09855	-5.50482	-8.20491	 1.20549
   118	 24.0156	 29.2631	 5.74523	 3.78179	-0.42958	 4.94257
   119	 25.4528	 30.6913	 4.44094	 3.55511	 7.59084	 7.39162
   120	 21.3187	 28.9388	 2.42472	 8.28119	-5.74358	 4.10581
   121	 20.5785	0.844275	 8.63051	-0.751262	0.396775	-1.40246
   122	 21.3336	0.491674	 9.75541	-1.30381	 1.44605	0.780344
   123	 20.7143	0.303681	 10.9858	 1.17955	0.554638	-1.77135
   124	  19.333	0.454569	 11.0949	0.133845	-4.53578	-2.04333
   125	 18.5867	0.846787	 9.99579	-0.556565	-0.441371	 2.08694
   126	 19.1999	 1.03895	 8.76785	-0.892207	 1.68844	 2.25732
   127	 22.3644	0.360598	 9.58253	-13.8667	 1.33547	  1.2312
   128	 18.6099	 1.33246	 7.89123	-1.27447	  1.8212	  7.6426
   129	 21.2944	0.00451279	 11.8393	 4.77735	-5.15153	 5.81696
   130	 17.5263	 0.95873	 10.0594	 2.84701	-4.76418	 -3.1598
   131	 18.8544	 0.34147	 12.0366	-3.75545	 -1.5652	 5.07431
   132	 21.0641	 1.02683	 7.68118	-0.703119	 6.25455	 1.23729
   133	 15.8876	 23.0362	 29.5974	-0.175054	 1.41917	-1.62897
   134	 15.7611	 23.0559	 28.2104	-2.08234	-0.312803	-1.18105
   135	 16.6721	 22.3345	 27.4281	-1.75378	-2.01387	-0.0635853
   136	 17.7051	 21.6154	 28.0297	0.676851	0.529623	-0.0574999
   137	 17.8161	 21.5905	 29.4199	0.217999	 1.46361	0.131527
   138	 16.8987	 22.3023	 30.2114	-1.56967	 1.49117	-1.01485
   139	  14.992	 23.6637	 27.7682	 7.12657	0.597204	   1.726
   140	 16.9992	 22.3587	 31.2591	 1.26034	 14.5663	 2.83216
   141	 16.6064	 22.4106	 26.3741	  4.3822	 4.81327	 9.90301
   142	 18.5929	 21.0105	 29.8328	-2.41768	0.700788	-8.30031
   143	 18.3847	 21.0283	 27.4211	-3.51646	-4.82249	0.915105
   144	 15.1589	 23.5803	  30.222	 3.20894	-4.73096	-0.198513
   145	 15.0601	 29.7467	  18.756	-0.97551	 1.42236	0.858044
   146	 14.3319	 29.6495	 17.5459	0.157814	-0.657021	-2.05571
   147	 14.4086	 30.6998	 16.6454	-0.472445	0.749437	 2.79581
   148	 15.2212	 31.7994	 16.8586	 1.14271	 -1.2872	-2.26027
   149	 15.9372	 31.8854	 18.0574	-1.60591	-0.824389	-0.681453
   150	 15.8675	 30.8444	 18.9925	-0.494801	-0.992482	-1.00043
   151	 13.7224	 28.8087	 17.3883	-3.29758	-5.26618	 2.17805
   152	 16.5138	 30.8675	 19.8877	 9.54088	-3.75236	-11.0304
   153	 13.8396	 30.6255	 15.6827	-0.475083	-1.28746	-3.12285
   154	 16.5474	 32.7239	 18.2944	-8.05993	-7.04165	0.820262
   155	 15.2453	 32.6433	 16.1426	0.845431	 4.39433	  -10.66
   156	 15.0077	 28.9538	 19.4738	-0.201006	 2.07586	 2.63765
   157	  39.868	  28.035	 7.26752	-0.542178	0.230185	 2.42163
   158	 39.7662	 26.8805	 6.48889	-0.94121	 1.57939	0.208244
   159	 39.7337	 25.6351	  7.1054	 1.82505	 1.10019	-1.02115
   160	 39.7747	 25.5417	 8.51058	0.756241	-0.189413	0.993575
   161	 39.8739	  26.698	  9.2802	0.754063	-1.31404	 1.31876
   162	 39.9006	 27.9575	 8.63908	-2.96386	0.885105	-0.70662
   163	 39.7011	 26.9477	  5.3992	-5.29589	 1.19565	-0.746827
   164	 39.9959	 28.8437	 9.27219	 4.65912	  15.767	0.357489
   165	 39.6224	 24.7302	  6.4999	-3.40567	  1.1134	 -2.4739
   166	 39.8663	 26.6795	 10.3547	-6.10765	 10.5717	-5.40239
   167	 39.7275	 24.5628	 8.99883	-0.032325	 5.40076	 2.07845
   168	 39.9852	 28.9941	 6.84605	 10.8192	-8.53713	 10.9015
   169	 14.9822	 35.7071	  33.205	-0.540703	-0.0759679	-0.65959
   170	  14.494	 35.3373	 31.9961	 3.70824	-1.31713	 5.19616
   171	 13.5082	 34.3392	 31.8977	-3.50806	 3.20068	 2.72985
   172	 13.1143	 33.6586	 33.0431	 1.02757	 1.10119	-0.376406
   173	 13.6129	  34.026	 34.3026	-1.66706	 1.67716	 2.97872
   174	 14.5427	 35.0485	 34.3522	-3.21041	0.792362	-2.40805
   175	 14.7331	  35.835	 31.0777	-7.08088	0.652728	-6.35593
   176	 14.9581	 35.3376	 35.3114	-1.71205	 2.22982	-10.2655
   177	  13.172	 34.0386	 30.9214	 15.2814	 2.60121	 12.0119
   178	 13.3078	 33.4884	 35.1951	 5.33429	   2.944	 4.66796
   179	  12.373	 32.8381	 32.9813	 3.37817	-1.52426	-4.16202
   180	 15.6881	 36.5291	 33.2855	-8.17408	-1.42852	 4.08245
   181	 25.8073	 6.32577	 33.7216	 -1.8576	 1.67039	 1.89704
   182	 26.0459	 7.69111	 33.8244	0.431711	0.383309	-0.313065
   183	 25.6275	 8.36367	 34.9753	 4.39403	-1.10522	 2.17807
   184	  24.933	  7.6671	 35.9892	-0.514058	-1.37934	 1.77773
   185	 24.7154	 6.29603	 35.8549	0.562356	-0.861097	-1.72393
   186	 25.1561	 5.63243	 34.7165	-0.577696	 1.69649	-0.79824
   187	 26.5832	 8.22581	 33.0483	 1.98873	-6.19199	  3.6753
   188	 24.9982	 4.55156	 34.6662	-0.256499	-11.1243	 4.83093
   189	 25.7638	 9.42132	 35.0312	 -3.2903	-7.89461	-0.92649
   190	 24.1678	 5.79947	 36.6404	-5.33886	 4.67257	-1.17243
   191	 24.5939	 8.19118	 36.8512	-0.341238	-2.83598	-4.04055
   192	 26.1221	 5.77769	 32.8189	-6.96332	 4.25459	 2.26443
   193	 28.9199	 29.7351	 37.9676	-0.894187	0.0231585	0.846835
   194	 28.3807	 30.9846	 37.6805	-1.23526	-1.17668	 1.27097
   195	 28.9698	 32.1435	 38.2322	-0.592586	 1.16279	 1.70581
   196	 30.1093	 32.0116	 39.0565	 3.44506	-1.72084	0.216189
   197	 30.6254	 30.7902	 39.3425	0.355325	 3.69326	-0.432478
   198	 30.0428	  29.622	 38.8031	 0.67903	0.0381508	 1.13482
   199	 27.5304	 31.0979	 37.0415	0.711944	 2.89822	 2.36174
   200	 30.4811	 28.6882	 39.0305	 4.82577	 13.4002	 2.72372
   201	 28.5936	 33.1132	 38.0075	 12.1626	-1.05487	 -3.5661
   202	 31.5345	 30.6768	 39.9378	 2.96502	-3.56509	-11.7289
   203	 30.5195	  32.957	 39.4648	-2.34811	 3.91002	0.881207
   204	 28.4765	 28.8216	  37.543	 6.30234	-0.362967	 5.65671
   205	 28.3233	 8.67696	 39.1832	-1.44096	-1.67308	-0.137286
   206	 28.8126	 9.98172	 39.2825	-1.42241	 -3.7662	0.643214
   207	 27.9577	 11.0219	 39.5697	 1.37284	-2.90856	0.253346
   208	 26.5828	 10.7828	 39.7755	-1.50957	-0.469702	0.682046
   209	 26.1097	 9.48006	 39.6766	0.577773	-0.785545	-0.770381
   210	 26.9738	 8.43287	 39.4027	-0.605459	-0.00545709	 2.38226
   211	 29.8211	 10.1855	 39.0667	-8.34441	-0.823332	-7.55358
   212	 26.6013	  7.4446	 39.2989	-1.19975	 10.2355	-1.70287
   213	 28.2873	 12.0549	 39.6659	-1.75527	 -7.0502	 6.24806
   214	 25.0259	 9.29617	 39.8224	-3.63454	 1.87419	-2.55316
   215	 25.9439	 11.6184	 39.9682	 4.60999	 2.21082	-4.87371
   216	 29.0122	  7.8392	 38.9701	0.0760814	-4.69293	 2.29978
   217	 18.3073	 5.33868	 2.11146	0.210708	 3.51195	-1.00862
   218	 16.9716	 5.70911	  2.1381	0.245429	-0.761154	 0.77059
   219	 16.6337	 7.06923	 2.13173	-1.23215	-0.561728	0.863659
   220	 17.6421	 8.03144	 2.09706	-1.21031	-0.144616	-0.921043
   221	 19.0009	  7.6321	 2.09342	 1.55459	-0.887036	0.968081
   222	 19.2979	 6.31311	 2.08732	-3.54756	 5.17311	-1.01204
   223	 16.1984	 4.94665	 2.17117	 3.26001	-5.44129	 2.03499
   224	 20.3728	 5.96951	 2.02541	  12.137	-3.50262	-8.92419
   225	 15.5826	 7.38614	 2.15587	 1.62373	-4.47572	 2.66522
   226	 19.7955	 8.31986	 2.10325	-4.24741	-11.0349	 5.21939
   227	 17.3942	 9.07284	 2.10766	-0.842712	-2.60829	 1.61637
   228	 18.5554	 4.29685	 2.10284	 1.75164	-4.43282	 -3.1378
   229	 4.14722	 23.8386	 18.5378	-0.433303	 1.10916	 1.45842
   230	 4.18054	 22.5308	 18.0917	-3.51318	 2.77625	-0.0752744
   231	 3.01759	 21.8519	 17.7585	-0.534315	0.652093	 2.88585
   232	 1.80817	 22.5168	 17.8183	 1.76637	 1.30853	 -1.0293
   233	 1.75434	 23.8457	 18.2583	0.248315	 1.65657	-0.573588
   234	  2.9424	 24.4826	 18.6098	 1.26689	-2.82535	-0.796968
   235	 5.16866	 21.9956	 17.9981	-4.62092	-0.0240105	-4.73881
   236	 2.93854	 25.5149	 18.8998	-0.741512	0.108531	 5.03841
   237	 3.07221	 20.8549	 17.3889	 4.91001	 10.7466	0.332295
   238	 0.80995	  24.366	 18.3713	 8.02766	 2.70055	 7.23566
   239	 0.94507	   21.95	 17.5978	 2.06529	 -11.891	 4.91989
   240	 5.10552	  24.343	 18.7693	 5.16604	-0.899696	-4.86474
   241	0.779688	 14.7609	 28.8197	-0.768047	 -1.5257	 -1.8986
   242	 1.78498	 14.1152	 29.5164	-1.44253	 4.30723	-0.717083
   243	 2.80653	 14.8151	  30.183	 2.93493	 1.85572	 2.43975
   244	 2.77927	 16.2047	 30.1279	-2.81928	0.119829	0.277082
   245	 1.80115	 16.8859	  29.453	0.994618	0.712864	 1.81486
   246	0.784972	 16.1623	 28.7985	0.281648	0.191341	 1.28412
   247	 1.75013	 13.0341	 29.5119	-6.54016	-6.26248	-5.86779
   248	0.0562962	 16.6908	 28.2093	  13.834	0.251261	-3.49188
   249	 3.55887	 14.2761	 30.6798	-3.64347	-0.883028	 -3.4088
   250	 1.78808	 17.9718	 29.4313	-3.44169	-4.59167	 1.75422
   251	 3.57752	 16.7354	 30.6546	-0.641378	-4.20431	 3.74412
   252	0.0218091	 14.2315	 28.2588	 8.33024	 2.65102	-6.83861
   253	  22.722	 17.6807	 11.6905	-0.111646	 1.34126	 1.43629
   254	 23.9209	 18.3629	 11.8156	0.839491	-2.31537	0.729144
   255	  24.994	   17.81	 12.4914	-0.407462	 1.08108	 1.27841
   256	 24.8824	 16.5322	 13.0357	0.415936	 1.42222	 1.77196
   257	 23.6954	 15.8098	 12.8913	 1.78811	-1.08584	-0.418845
   258	 22.6013	  16.411	 12.2223	0.623645	  2.2173	0.685046
   259	 24.0104	 19.3221	 11.3638	0.104064	-8.07154	-4.01106
   260	 21.6662	  15.925	 12.2095	-1.14911	 12.5443	 13.6593
   261	 25.9376	 18.2728	 12.5975	 -4.7799	-11.8752	-0.421081
   262	 23.5997	 14.8029	 13.2602	 1.06019	-2.60029	-8.39267
   263	 25.6891	  16.067	 13.5479	-4.68374	-1.05732	-0.0349708
   264	  21.951	 18.1093	 11.0886	 13.9959	-3.59437	-15.4095
   265	 10.8705	  12.586	 23.0973	-0.550965	 1.12018	 2.17559
   266	 12.2712	  12.471	 23.0926	0.387243	 2.76534	 1.15032
   267	 13.0773	 13.6055	 23.1174	-0.526769	 2.31121	 1.26146
   268	  12.491	 14.8647	 23.1266	-0.832667	-0.453162	-2.59315
   269	 11.0893	 14.9743	 23.1518	-2.04787	-1.77567	 3.15884
   270	 10.2896	 13.8512	 23.1006	-0.246343	0.317039	-1.78869
   271	 12.7513	 11.5141	 23.0705	-1.00323	 10.3838	0.584513
   272	 9.24134	  13.933	 23.1363	 4.07012	-2.27805	 4.77127
   273	 14.1305	 13.4836	 23.1515	-4.00376	-1.11109	 6.32529
   274	 10.7016	 15.9602	 23.1184	  8.2342	-1.94526	 -4.5396
   275	 13.0979	 15.7413	  23.154	 1.44192	 6.09254	0.613932
   276	 10.2722	 11.6871	 23.0384	 2.98005	-1.04076	 -3.9195
   277	 4.56591	 36.2759	 18.2168	-3.10014	 1.72665	 3.18727
   278	 3.40581	 35.6136	 18.5684	 2.60379	 2.81985	 2.23819
   279	 3.02266	 35.5444	  19.908	-1.05999	-0.0566579	 1.42201
   280	 3.85117	 36.1282	 20.8901	 2.11921	-2.07018	 0.56321
   281	 5.01156	 36.7962	 20.5073	-0.17592	0.205592	-0.11536
   282	 5.37464	 36.8529	 19.1658	 -1.9294	-0.519867	-0.0717282
   283	  2.7477	 35.1974	  17.838	-4.73151	 7.00003	-12.3393
   284	 6.28244	 37.3486	 18.9223	 6.21136	 2.56132	 5.01263
   285	 2.08876	 35.0922	 20.1977	0.765158	 10.2251	-6.84685
   286	 5.63061	 37.2591	 21.2814	-1.54421	0.180387	 2.48874
   287	 3.57771	 36.0961	 21.9308	-4.11398	-6.11486	-10.5835
   288	 4.81936	 36.3563	 17.1327	-5.05826	 9.63112	 4.37311
   289	 21.8129	 2.59718	 27.6354	-3.24708	-2.28329	-1.79701
   290	 23.2099	 2.62906	 27.6427	-0.689673	0.718322	 2.38289
   291	 23.8872	 3.84996	 27.6407	 -2.1691	 3.04155	-0.506628
   292	 23.1677	  5.0388	 27.6569	-2.18156	  1.7524	 2.11358
   293	 21.7681	 5.00245	 27.6379	-0.173707	-0.957501	-1.08455
   294	 21.0886	 3.78075	 27.6553	-1.56766	 -1.1558	 2.78499
   295	 23.7854	 1.70641	 27.6594	  2.3973	 4.20479	  2.6407
   296	 20.0052	 3.80939	 27.6308	 4.73213	 6.97481	-0.483833
   297	 24.9731	 3.89314	 27.6021	-7.55227	 2.93903	 -6.7896
   298	 21.1806	 5.92018	 27.6427	-5.71455	-10.9262	 0.57966
   299	 23.7134	 5.95562	 27.6582	0.261396	-3.25265	 2.00111
   300	 21.2815	 1.66235	 27.6587	 5.04029	 5.60453	 3.42436
   301	 20.4404	 34.6709	 7.99199	0.569462	-0.152128	 3.34836
   302	 19.6069	 35.1795	 9.01076	-1.47763	 3.22135	 2.24999
   303	 19.2226	 36.5129	 8.98257	0.222718	 1.70536	0.916125
   304	 19.6406	 37.3341	 7.95015	-0.471115	-1.76989	-0.340573
   305	  20.465	 36.8508	 6.93655	0.0519879	-0.885796	 1.23481
   306	 20.8749	 35.5034	 6.96119	 1.55754	-1.11145	 3.92432
   307	 19.3177	 34.5258	 9.78921	 1.68141	-2.35475	 6.10031
   308	 21.4295	 35.1351	 6.14742	-9.97143	 0.64111	-0.560309
   309	 18.5795	 36.8966	 9.76352	 5.93339	 5.18423	-0.0751827
   310	 20.7527	 37.4611	 6.09866	-4.55818	 10.7564	 8.00272
   311	 19.3818	 38.3812	 7.94695	 6.73982	-1.02236	  0.8961
   312	 20.7543	 33.6456	 7.98322	 1.31074	 2.55949	0.632388
   313	 33.0139	 19.9539	 23.7338	-0.00787041	0.832375	0.0861917
   314	 31.9849	 19.2007	 23.1582	-0.435927	 1.50449	-0.600349
   315	 31.7149	 19.2995	 21.7998	-0.429153	 1.47109	 0.42087
   316	 32.4658	 20.1475	 21.0004	-1.02517	-0.0318493	 2.01821
   317	 33.5032	 20.9127	 21.5705	0.540306	 1.19444	  1.2895
   318	 33.7656	 20.8129	 22.9184	-0.397311	 1.40819	-1.97835
   319	 31.4142	 18.5545	 23.7856	 2.37401	 4.83091	0.0732636
   320	 34.5909	 21.3876	 23.3199	 3.53661	-1.26198	-7.35819
   321	 30.8926	 18.6952	 21.3858	-3.98517	-0.723871	 4.54525
   322	 34.0746	 21.5071	 20.9052	-3.08574	-12.2148	0.696274
   323	 32.2377	 20.2251	 19.9531	-5.90199	0.654271	-5.59504
   324	 33.2115	 19.8747	 24.7647	-8.15466	 1.49701	 3.76063
   325	 4.86954	 3.97368	0.00566958	-1.24965	-1.25644	0.853678
   326	 6.13468	 4.58361	 39.9914	0.538324	-2.64841	-1.32671
   327	 7.27883	   3.811	0.0163315	-2.44154	-2.44123	 2.46428
   328	 7.19147	 2.45444	0.0107451	-0.954221	 2.98597	 1.47656
   329	 5.95515	 1.79529	 39.9895	 1.07407	 -1.6375	-1.68652
   330	 4.78589	 2.59206	 39.9977	-0.000372611	-0.443146	-0.368368
   331	 6.15472	  5.6662	 39.9602	-2.95614	 -9.0193	-5.96136
   332	 3.82995	 2.10656	 39.9294	-1.26973	 -1.9993	-4.76901
   333	 8.23962	 4.25088	0.0271211	 5.91801	-4.54775	 4.06739
   334	 5.89826	 0.74606	 39.9392	-1.39443	-12.2652	-10.3093
   335	 8.10944	 1.84574	 39.9835	-5.36299	-5.02289	0.356007
   336	 3.97262	 4.55599	 39.9598	 6.26551	-4.50423	-6.09809
   337	 6.54878	 8.99225	 4.41455	 1.64119	0.552712	-0.172526
   338	 6.78727	 10.3514	 4.52185	-0.36671	-1.29345	0.890864
   339	 7.97406	 10.8079	 5.13078	 1.73378	-0.156105	 2.39896
   340	 8.89029	 9.88653	 5.60559	 0.71474	-1.09056	-2.49916
   341	 8.63916	 8.51456	 5.51003	0.220508	-1.58142	-1.07774
   342	 7.46226	 8.09232	 4.91156	-0.713673	-0.836005	 0.22254
   343	 6.08389	 11.0513	  4.1033	 3.73902	-8.59721	-2.52365
   344	 7.25534	 7.00154	 4.86426	-4.38756	 6.27228	 2.15821
   345	 8.14737	 11.8777	 5.22601	 1.08408	-7.17488	 6.71094
   346	 9.35301	 7.81493	 5.89332	-6.39984	 1.26084	-1.28952
   347	 9.84879	 10.2336	 6.04722	 6.88879	-1.72891	-5.48067
   348	 5.62623	 8.61291	 3.96807	 4.09664	 1.94187	 4.61207
   349	 36.0045	 23.3159	 24.5869	0.728786	-0.000984514	0.122799
   350	 35.1329	 22.8278	 25.5927	-1.33945	-1.23904	 2.69336
   351	  35.566	 21.8187	 26.4216	0.430558	 1.10835	-0.877916
   352	 36.8246	 21.2663	 26.2797	-2.37751	-0.230045	-1.73994
   353	 37.6946	 21.7678	 25.2758	-0.324888	 2.43586	-3.71494
   354	 37.2798	 22.7671	 24.4352	0.829626	-1.56678	-1.77749
   355	 34.1445	 23.2315	 25.6517	  4.2685	-8.51854	-2.43559
   356	 37.9368	 23.1235	 23.6525	-1.36627	-3.72849	-3.91451
   357	 34.9057	 21.4215	 27.1752	 1.98221	-2.65525	-3.34532
   358	 38.6459	 21.3048	 25.2185	-11.3651	 0.53988	 1.74594
   359	 37.1058	 20.4495	 26.8863	-6.73103	-11.2843	-4.37519
   360	  35.676	 24.0998	 23.9353	0.496957	-2.00233	 1.86571
   361	 12.1612	 13.9403	 38.5936	-0.984995	 2.01324	 2.55965
   362	 12.7975	 15.1374	 38.8854	-0.510479	-0.193561	 2.15403
   363	  14.153	 15.1646	 39.1662	-1.93742	 1.99956	-1.79944
   364	 14.8865	 13.9527	 39.1826	-1.18808	-1.88608	-0.881722
   365	 14.2671	 12.7618	 38.9001	 1.59418	 0.60047	0.911886
   366	 12.8874	 12.7487	 38.5952	-1.11276	 1.18901	0.936537
   367	 12.2673	 16.1025	 38.8258	 9.79695	 0.37797	-5.08742
   368	 12.4097	 11.7938	 38.3611	 1.07374	-0.925404	0.158424
   369	 14.6558	  16.091	 39.4249	-5.66588	-3.66833	 1.39041
   370	 14.8152	 11.8121	  38.928	 -1.3024	-2.86709	 3.80513
   371	 15.9282	 13.9766	 39.4273	 6.80625	-0.0066375	 2.67461
   372	  11.113	 13.9078	 38.3107	 6.77402	 3.10024	-2.51595
   373	 39.0707	 34.0303	 1.86387	-0.850145	-0.869736	-0.279162
   374	 39.0617	  32.661	 2.12801	-0.990017	 0.79751	0.0146391
   375	 37.8593	  32.012	  2.3432	0.847751	0.776317	-0.746413
   376	 36.6617	 32.7226	 2.30908	0.669917	0.619626	0.229939
   377	 36.6563	 34.0892	 2.05968	-1.28694	-0.710211	 2.10226
   378	 37.8469	 34.7453	  1.8249	-5.31548	-0.238613	-0.18058
   379	0.000762815	 32.0847	 2.09684	 -2.0716	 2.38626	-10.2203
   380	 37.8697	 35.8142	 1.62273	-3.36825	0.0451882	-0.0533443
   381	 37.8065	 30.9579	 2.54939	-7.02794	 1.81332	  1.0642
   382	 35.7693	 34.6729	 2.03688	 7.85832	-2.34703	 4.22038
   383	 35.6979	 32.1931	 2.51115	-2.10613	 -2.7249	 4.90007
   384	0.00288595	 34.5505	 1.75911	-5.73758	-4.52468	 11.1609
   385	 27.6128	 34.1061	 15.2243	 1.47069	-0.586386	-0.429174
   386	 26.4848	 34.0703	 16.0302	 2.59236	0.389132	0.113219
   387	 25.8169	 32.8452	 16.2673	-0.739834	-1.70487	0.688005
   388	 26.3312	 31.6891	 15.6954	 2.19554	 1.66823	 1.08464
   389	 27.4684	 31.7311	 14.8961	 2.38979	 1.56216	 1.53176
   390	 28.0904	 32.9366	  14.673	-1.14958	-0.213425	 2.90811
   391	 26.0998	 34.9696	 16.4981	  2.6163	-1.57045	 3.52105
   392	 29.0489	  32.976	 14.0749	 3.06721	  4.8138	 12.5114
   393	 24.9351	 32.7906	 16.8644	  5.9012	-5.96212	-8.15797
   394	 27.7974	 30.8017	 14.4274	 1.35476	 3.46306	 -1.4748
   395	 25.8008	 30.7264	 15.8368	-1.62376	 5.29743	-4.00397
   396	  28.123	 35.0415	 15.0525	-3.21821	0.193272	 2.92964
   397	 10.2576	 38.7488	 24.5973	0.720208	 1.79461	0.931764
   398	 10.3306	 38.4834	  25.949	 0.43758	 2.53026	-2.22153
   399	 11.5178	  38.696	 26.6521	-1.08204	-0.159846	-1.54145
   400	 12.6471	 39.2081	 25.9737	 1.24668	 1.49279	-0.890659
   401	 12.5701	 39.4577	  24.613	 1.42697	-1.25936	0.290547
   402	 11.3619	 39.2233	 23.9172	-0.814727	-1.75463	-0.393036
   403	  9.5104	 38.0195	 26.4554	-0.0210313	-13.1782	-0.455473
   404	 11.3532	 39.4302	 22.8599	 6.19421	-2.24254	 0.74294
   405	 11.5573	   38.45	 27.6833	  -3.083	-7.97687	 3.01797
   406	 13.4238	 39.8832	  24.129	-7.01253	 2.33172	 6.08313
   407	 13.5629	 39.2908	 26.5081	 7.88313	-10.3902	 2.87806
   408	 9.34772	 38.6169	 24.0171	-6.13597	   7.545	-11.1399
   409	 27.6017	 37.3285	 11.8342	 1.09236	  1.6715	 1.72066
   410	 28.2761	 37.8757	 10.7338	 1.59037	 1.49926	-1.41131
   411	 29.2971	 38.7876	 10.9349	0.979607	-0.658226	-0.0229207
   412	 29.6481	 39.1681	 12.2363	-0.403082	-1.34424	 1.56224
   413	 28.9951	 38.6362	 13.3213	 1.58955	 -0.4691	0.584304
   414	 27.9487	 37.7069	  13.134	-2.17584	-0.384091	0.110458
   415	 27.9512	 37.6113	 9.73032	-5.11927	 6.93436	-1.03407
   416	 27.4912	 37.2371	 13.9733	 12.0422	-3.44964	-4.94319
   417	  29.811	 39.2197	 10.0979	0.355323	0.881887	 3.02215
   418	 29.2891	 38.9254	 14.2867	 4.39494	-2.37976	-2.75244
   419	 30.4291	 39.8907	 12.3294	-8.31585	-5.74481	-3.52898
   420	  26.839	 36.5692	 11.6856	 5.70163	-5.15486	-1.44333
   421	 11.9646	 32.1412	 9.03247	 1.32049	0.120059	 2.38486
   422	 11.9118	 30.7915	 9.35623	-2.11818	 1.41308	0.619936
   423	 11.7546	 30.4123	 10.6979	 0.20704	-0.351665	-2.55548
   424	  11.616	 31.3958	 11.6898	-0.717724	0.285283	 1.02942
   425	 11.6491	 32.7407	  11.331	-0.482388	 -1.6968	 -1.3709
   426	 11.8059	 33.1234	 10.0069	-2.13409	-0.216446	0.500607
   427	 12.0439	 30.0752	 8.57681	 1.62193	 -8.2856	 6.75363
   428	 11.8334	 34.1916	 9.74044	-1.32862	-3.37818	-1.54783
   429	 11.7071	 29.3823	 10.9809	-4.03692	0.560505	 3.51013
   430	 11.5254	 33.4664	 12.1066	-4.41643	 1.39632	 7.41573
   431	 11.5252	 31.0618	 12.7119	 5.81077	-0.933595	-5.82811
   432	  12.081	 32.4343	 8.01267	-0.226672	-0.808675	 1.51296
   433	 30.4362	 29.3186	 9.48939	 2.06168	-0.507837	 2.49213
   434	 31.4458	 28.5031	  9.0197	-0.591478	0.791364	  1.0111
   435	 31.5511	 27.1872	 9.48251	-0.238942	 1.10508	 2.22811
   436	 30.6324	 26.6911	 10.3878	 3.32049	 0.34329	-0.215802
   437	 29.6105	 27.5185	 10.8593	 2.87677	0.0840031	 1.71252
   438	 29.4737	 28.8324	 10.3864	-2.10756	 -0.3658	-1.09417
   439	 32.1798	 28.8444	 8.32445	0.932901	-5.42953	 4.02956
   440	 28.6634	 29.4596	 10.7369	-4.63997	-2.18234	-1.86401
   441	 32.3358	 26.6107	 9.04551	 -6.4637	 10.7723	-6.56815
   442	 28.8575	 27.1477	 11.5466	 2.90269	 7.21305	-8.16081
   443	 30.6948	 25.6938	 10.7572	0.171771	 3.65128	 2.00978
   444	 30.3746	  30.347	 9.11613	 3.20059	-5.60664	 2.38406
   445	 16.8036	 20.2445	 21.9157	0.139029	 2.23576	-1.88537
   446	 17.9599	 21.0084	 21.7755	0.0267918	  2.0558	0.063004
   447	 18.1696	 22.1126	 22.5876	 1.00246	-0.819324	  2.4521
   448	 17.2159	 22.4668	 23.5223	 1.65493	-1.79346	-0.965477
   449	 16.0373	 21.7102	 23.6762	-2.64034	-1.00457	-0.76896
   450	 15.8429	 20.5989	 22.8785	-1.19263	 1.52839	-0.240326
   451	  18.682	 20.7243	 21.0638	-3.01931	 1.43751	 4.84676
   452	 14.9417	  19.981	  22.979	-5.30938	 4.98967	-5.64829
   453	 19.0587	 22.7098	 22.4801	 -5.3415	-1.71866	 6.63303
   454	 15.3298	 21.9745	 24.4118	 3.07231	-2.96985	-1.57399
   455	 17.3557	 23.3458	 24.1418	0.791418	-5.12065	-5.80326
   456	 16.6414	 19.3588	 21.2922	-0.655946	0.899887	-1.97159
   457	 15.1715	 16.7159	 11.4005	  1.3822	-1.14005	-2.78917
   458	 16.3648	 17.2859	 11.8463	 0.29992	-0.262856	 1.92454
   459	 17.3325	 17.6216	 10.8993	-0.70821	-2.68564	  1.9505
   460	 17.1045	 17.4331	 9.53724	-0.648788	 1.50342	 1.50632
   461	 15.8947	 16.8591	 9.12329	-0.927094	0.250843	 3.48431
   462	 14.9362	 16.5052	 10.0428	0.690965	 0.35627	-0.805524
   463	  16.548	 17.4728	 12.8945	 3.08588	 2.97345	-5.09167
   464	 13.9851	 16.0404	 9.71364	-1.68972	-8.71306	 13.4525
   465	 18.2765	  18.081	 11.2526	-3.05889	-4.51237	 10.0916
   466	 15.6803	 16.6638	 8.09026	-8.32031	-4.64569	-2.94958
   467	 17.8756	 17.6812	 8.84726	 9.51368	0.351724	0.469452
   468	 14.4215	 16.4507	 12.1137	-4.62291	-1.78975	 3.29609
   469	 20.7421	 19.6988	 38.5804	 0.51504	0.287447	0.510375
   470	 22.0017	 20.2563	 38.4221	0.307637	 2.69168	 1.18877
   471	 22.2317	 21.5709	 38.8348	-0.48341	-2.30548	  1.4221
   472	 21.2109	 22.3136	 39.3857	0.379855	-1.72303	 0.10936
   473	 19.9324	  21.765	 39.5398	-0.891293	  1.0375	-0.926274
   474	 19.6992	  20.428	 39.1384	  -1.684	-4.02784	-0.903739
   475	 22.7787	  19.669	 37.9994	 14.6861	 -1.6273	-1.99749
   476	 18.7626	 19.9695	 39.2844	 3.54052	-1.68495	 6.54853
   477	 23.1851	 21.9955	 38.6763	-5.74533	-3.11526	-3.02836
   478	 19.1762	 22.2928	0.067465	 12.7746	-7.96508	 10.5021
   479	 21.3998	 23.3583	 39.6937	 1.15439	-2.01319	-1.16689
   480	 20.5694	 18.6915	 38.2745	 1.78568	 2.84305	 2.04363
   481	 35.3157	 34.7725	 12.5497	 1.38759	-1.38656	-0.598764
   482	 34.0739	 35.4388	 12.5497	-1.04757	-0.323546	 1.46583
   483	 33.0874	  35.048	 11.6227	-1.37207	-3.16139	-2.49954
   484	  33.327	 34.0308	 10.7348	-1.15851	 2.04812	-0.0616279
   485	 34.5406	 33.3548	 10.7482	-3.35819	-0.153895	0.812028