ITEM: TIMESTEP
1.26961
ITEM: NUMBER OF ATOMS
1200
ITEM: BOX BOUNDS
0	40
0	40
0	40
ITEM: ATOMS index type x y z
     1	 10.3183	 19.3403	 32.5638	 2.07421	-1.85984	 1.58844
     2	  9.7513	 18.5534	 33.6154	-0.449576	-3.21261	-0.385312
     3	 9.45596	 17.1521	 33.4057	-1.66433	-1.83631	  2.5889
     4	 9.19422	 16.8061	 32.0249	 -1.4342	0.818066	0.950746
     5	 9.45261	 17.6644	 30.9767	 -2.1532	0.198849	-0.990045
     6	 10.0322	  18.961	 31.2745	-0.410308	 -1.3837	 3.07023
     7	 8.95262	 18.9557	 34.1794	-7.23084	 2.94225	 6.77278
     8	 9.68038	 19.7376	 30.5682	 1.02816	  -3.948	 13.6292
     9	 10.1072	 16.4748	 33.9297	 6.07075	 -5.0736	 3.96364
    10	  9.9363	 17.1717	 30.1438	-0.0419988	-2.79536	 8.43309
    11	 8.24055	 16.3488	 32.0015	 16.3176	 -9.8901	 4.63481
    12	 11.2937	  19.682	 32.7905	-2.38441	  1.6581	 8.11845
    13	 39.2027	  33.359	 33.3213	  2.0127	 -1.8845	0.529376
    14	 39.8942	 34.3534	  34.008	-0.885804	 1.42594	-0.326185
    15	 39.4806	   35.71	 33.7134	 2.52993	-1.38559	-1.18713
    16	 38.1429	 35.9748	 33.2231	0.482763	  2.5321	0.523989
    17	  37.463	 34.9538	 32.5976	 1.69837	0.893726	0.530715
    18	  37.976	 33.5957	 32.6293	 -3.7941	-1.50037	0.400828
    19	 39.9845	 34.2158	 35.0936	-1.13646	-0.91075	-12.5389
    20	 38.1478	 33.2682	 31.5753	-0.677838	 6.26071	 9.04421
    21	0.301413	 36.2562	 33.2139	-1.13637	 3.55436	-1.90062
    22	 36.3754	 34.9694	 32.5835	  7.4018	 3.23683	-10.9594
    23	 37.6503	  36.546	 33.9816	  3.4046	-0.0579953	 8.48977
    24	 39.8523	 32.5844	 32.9477	 6.09444	-4.26597	-2.46467
    25	 39.6128	 22.1154	  38.149	-0.953195	0.336878	-1.98478
    26	 38.2245	 22.0022	 37.9382	0.0757655	  -1.539	 2.04545
    27	 37.4641	 23.1892	 38.2102	  1.5512	-3.95446	  1.5877
    28	 37.9928	 24.2981	 38.8555	-0.982513	0.402437	-0.591057
    29	 39.3441	 24.2574	  39.233	 1.20688	0.374792	 2.70362
    30	0.0991921	  23.028	 39.1525	-1.04917	 -1.7247	-0.558823
    31	 37.7258	 21.1557	 38.4452	 8.11975	-3.54819	 7.76663
    32	0.112584	 22.5341	0.157337	-7.54216	-2.54557	 15.2714
    33	 36.8169	 23.4266	 37.4118	-6.43717	-1.63763	 10.5253
    34	 39.5499	  24.739	0.223026	-6.53613	-7.46239	  9.0877
    35	 37.6196	 25.2101	 38.3104	  8.1605	-4.25971	-3.97726
    36	0.125002	 22.3158	  37.181	-4.64308	 1.66694	 1.15111
    37	 21.6903	 36.8903	 38.1609	-1.50085	0.485219	 3.62337
    38	 22.7249	 37.1592	 37.2085	-4.02493	-1.41258	 1.76487
    39	 22.3755	 37.1095	 35.8352	0.173626	-2.32868	 -1.3181
    40	 21.0983	 36.7863	 35.4147	-2.20715	-1.35913	-2.79821
    41	 20.0834	 36.7212	 36.3452	 1.33658	 1.08429	0.0205909
    42	 20.4122	 36.4676	 37.7339	-0.114655	-1.81137	 2.59731
    43	 23.2541	 38.0122	 37.5435	 1.63788	 13.7735	-15.7887
    44	 20.2052	 35.4519	 38.0285	-0.722467	-6.40478	-7.60895
    45	 23.1126	 37.1502	 35.0664	 2.05157	-0.739709	-1.06496
    46	 19.0689	 36.9397	 36.1022	 5.31507	 2.43116	0.504141
    47	 20.9683	 36.2881	 34.4462	-10.0352	-14.3484	-0.948194
    48	 21.6734	 37.5399	 39.0289	-8.38083	-11.0333	 2.95114
    49	 32.9888	  22.683	 37.2919	-3.29867	-2.97685	 1.22797
    50	 32.9323	 21.8904	 36.0854	-1.46192	-3.10956	0.638596
    51	 31.7825	 22.0688	 35.2477	0.647423	-2.22081	  2.8576
    52	  30.712	 22.9418	 35.6471	-0.807553	 3.19177	 3.08347
    53	 30.9239	 23.7917	 36.7666	-3.06903	0.627215	0.445939
    54	 31.9134	 23.5157	 37.6968	-4.41452	 2.26073	 2.80429
    55	  33.275	 20.8624	 36.1835	 10.4462	 6.50882	 2.61587
    56	 31.4697	 23.3511	 38.6947	-7.42729	-6.63593	-2.13265
    57	   32.09	 22.3662	 34.2385	 4.26533	  10.613	 1.07866
    58	 30.9434	 24.8178	 36.3823	-1.46131	 5.11591	 3.89503
    59	 29.7112	 22.5935	 35.5865	-3.99475	 3.60536	 3.19746
    60	 33.8962	 22.6885	 37.8687	0.372145	 1.57665	-7.80755
    61	  27.807	 28.0898	 22.8148	-1.78013	-0.930152	   1.109
    62	 26.4061	 28.3623	  22.787	-0.564084	-2.13946	-0.778961
    63	 25.8253	 28.3178	 21.4566	 1.70055	0.231443	 1.62802
    64	 26.3603	 27.3606	 20.5286	-0.0459818	-1.40127	 1.16113
    65	 27.6888	 26.8281	 20.7102	 2.36015	0.245044	 1.60364
    66	 28.4356	 27.2686	  21.855	 -2.3451	  2.3207	0.383143
    67	 25.8236	 27.7903	 23.4756	-2.79639	 5.56484	-8.62505
    68	 29.4907	 27.5545	 21.6592	-5.31452	-7.10977	-7.76656
    69	 25.7488	 29.3046	 21.0345	-7.14653	-2.11724	 0.63725
    70	 28.3147	 26.7784	 19.7697	 10.2428	-1.76406	 8.57184
    71	 25.6812	 26.8161	 19.8884	-3.01601	-1.22695	 2.90326
    72	 28.1158	 27.9699	 23.8738	-8.08916	-12.7001	-4.03908
    73	 4.02267	 26.8448	  13.261	 1.43982	-1.00717	-0.690125
    74	 3.41326	 25.6037	 13.1825	0.656203	  4.1598	0.675871
    75	 4.25343	 24.4953	 12.7654	-2.48513	-1.14249	 1.79681
    76	 5.65363	  24.538	 13.0236	 -2.2924	-7.36333	 2.42671
    77	 6.23616	 25.7754	 13.5016	-3.65877	-3.32362	 1.84722
    78	 5.42108	 26.9542	 13.4947	-4.36526	-0.632634	-0.127071
    79	 2.61393	 25.2818	 13.8223	 2.19406	-6.15459	 -3.5834
    80	 5.81338	 27.8015	 12.9256	 -2.4911	 11.6632	-1.60259
    81	 4.10729	 24.1531	 11.7528	-0.0160511	  12.898	-7.87529
    82	 7.00671	 25.7021	 14.2687	-0.136708	0.815896	 7.35026
    83	 6.28075	 23.8502	 12.5142	-3.58994	-6.87555	-1.27129
    84	 3.52891	  27.682	 12.7953	0.284138	-4.35728	-3.11723
    85	 17.1006	 26.7007	 35.1432	-2.91086	 1.20446	-1.71932
    86	 17.2785	   28.09	 34.8211	-2.24838	-2.97018	-0.910063
    87	 16.7081	  28.568	 33.6221	-2.12754	 -1.1951	-2.38976
    88	 15.5567	 27.9284	 33.1495	-3.25051	  -2.787	 3.32598
    89	 15.2856	 26.5787	 33.5612	-0.640706	-0.925783	 4.15159
    90	 15.8446	 26.1491	 34.7873	-0.995102	0.188832	 1.61671
    91	 17.1823	 28.6725	 35.7317	 7.53941	 6.26028	 2.21963
    92	 15.1422	 26.3024	 35.5864	 9.22188	 5.80416	-0.462298
    93	 17.4787	 28.9036	 32.9436	-2.51184	0.558821	-3.74479
    94	 15.3083	 25.9152	 32.7273	-1.38996	 1.35319	-4.18182
    95	 14.6347	 28.4921	 33.4772	 5.29504	-7.44207	 6.39252
    96	 17.9177	 26.1521	 34.6916	-0.776355	-7.11343	 12.0774
    97	 19.6529	 34.3764	 21.3863	-1.52277	-1.57364	 1.26656
    98	 19.9067	 33.2727	 20.5021	-2.35296	-3.41089	-2.62784
    99	 18.9253	 32.8495	 19.5466	-1.44964	0.211355	 1.98553
   100	 18.0381	 33.8607	 19.1373	-3.06488	0.0930393	  1.0267
   101	 17.5885	  34.854	 20.0791	-2.49018	-2.27684	 1.37177
   102	 18.4772	 35.1474	 21.0993	-0.53592	0.268997	  1.1299
   103	  20.931	 33.3352	 20.0609	 -5.4643	-3.44014	-0.925176
   104	  18.742	 36.2132	 21.1659	0.274617	-0.572105	-7.63401
   105	 18.3802	 31.9425	 19.7674	-13.7253	  10.987	 1.99943
   106	 16.5977	 35.2022	 20.0541	0.280571	-2.26434	-1.57435
   107	 18.3275	 34.3577	 18.2515	-2.30938	 3.21604	-11.2709
   108	 19.8478	 34.1636	 22.4512	 0.89468	  7.9284	 14.5589
   109	 24.1695	 28.6897	 3.23904	 1.30803	-0.517133	-1.40049
   110	 24.5397	 30.0487	 2.99984	 1.07951	 1.51074	 4.66151
   111	 24.3233	 30.9696	 3.99774	-1.34882	-0.861448	 1.69287
   112	 23.2715	 30.7384	 4.92429	-0.710504	-0.99906	 -2.0335
   113	 22.8084	  29.391	  5.2011	0.719381	 2.58497	 1.02975
   114	  23.266	 28.3922	 4.28354	 1.77535	 1.79253	-1.34507
   115	 24.1406	 30.3539	 2.06029	 2.46846	-0.298067	  4.5775
   116	 23.0694	  27.349	 4.54829	-5.50542	-4.72083	 4.31229
   117	 25.3079	 31.1925	 4.50082	-7.63622	 5.24696	-0.020139
   118	 22.9275	 29.0898	 6.25751	-5.72603	 3.25287	 4.14068
   119	 22.4291	 31.3685	  4.6336	-0.985894	-1.21603	-5.18316
   120	 25.0207	 27.9676	  3.1455	-4.87209	-10.2679	-3.01057
   121	  19.374	0.381923	 9.28929	-0.0901295	 2.09165	0.555873
   122	 20.4132	 39.4268	 9.57212	-0.842519	-3.93083	 0.98566
   123	 20.3627	 38.6446	 10.6776	-1.94986	 -1.6732	-0.318827
   124	 19.2614	 38.7708	 11.6108	   2.452	0.796399	 1.17197
   125	 18.2211	 39.7266	 11.3898	-0.0497622	 -2.8695	 1.04123
   126	 18.1873	0.377527	 10.1038	-4.45162	 -2.1115	0.290953
   127	  20.776	 38.9419	 8.67182	-5.24859	-4.48846	 2.61061
   128	  17.236	0.268794	 9.66956	0.362579	 10.0982	 9.41939
   129	 20.7323	 37.6153	 10.5371	 8.11759	-2.73837	-6.36917
   130	 17.9742	0.392172	 12.1996	-11.7198	 -4.7978	 1.89251
   131	 19.5319	 38.7012	   12.64	 2.81616	 0.65784	-1.26832
   132	  19.692	  1.4385	 9.15903	-1.24055	 12.2424	 7.47324
   133	 15.5548	  22.078	 30.6806	-0.215971	-0.438807	0.115577
   134	  16.719	 21.8517	 29.8618	 0.75356	0.217058	 1.92644
   135	 16.7968	 20.5223	 29.3528	 1.06076	 -2.0401	-0.305523
   136	 16.3144	 19.4223	 30.0569	-0.420537	-1.67882	 1.94857
   137	 15.2648	  19.692	 31.0045	 -4.5086	0.529281	 2.69643
   138	 15.0248	 21.0288	 31.4841	-2.25248	-3.37907	 5.20448
   139	 17.6103	 22.2066	 30.3693	-4.00454	 8.51702	-2.70404
   140	 15.4331	 21.1193	 32.4787	-1.79297	-0.172259	-0.265427
   141	 16.8154	  20.457	 28.2684	 9.21021	-4.83551	 1.81839
   142	 14.3376	 19.1216	  30.791	 -13.107	 4.99213	-1.63528
   143	 17.0611	 18.7885	 30.4992	-10.0497	-3.91412	   9.638
   144	   15.02	 22.9679	 30.4927	 1.60317	 3.75976	-4.51921
   145	  15.505	 28.3332	   20.14	0.196636	 3.16043	0.889013
   146	 15.0906	 27.8489	 18.8409	-1.42556	 -1.8698	 0.11443
   147	 14.6503	 28.8174	 17.8596	 1.72016	0.843995	 1.47962
   148	 14.0183	 29.9373	 18.3574	 1.23875	-4.42433	 2.13693
   149	 14.2701	 30.4569	 19.6541	-2.42487	-1.57354	0.00435337
   150	 14.8454	 29.5183	 20.5987	 1.20332	 -4.6955	 1.80651
   151	 14.4393	 27.0023	 19.0227	-4.94966	-1.68522	 8.61419
   152	 14.1791	 29.4114	 21.4493	-11.5474	 1.26915	 2.15498
   153	 15.4309	 29.1442	 17.1247	-11.7495	-11.1249	-3.11659
   154	 14.8358	 31.3414	 19.6164	-5.27648	0.458509	 10.9021
   155	 13.2132	 30.4077	 17.7616	 2.43413	 5.18254	-4.80656
   156	 16.5494	 28.2653	 20.2509	0.163765	  9.3677	-3.27557
   157	 37.7801	 28.0192	 9.37068	-0.789447	0.127716	 1.47412
   158	 37.4993	 27.1705	 8.29202	 1.63493	 1.25146	 1.73919
   159	 38.4658	 26.2722	 7.89305	-0.849628	-0.101951	 3.06608
   160	  39.497	 25.8678	 8.82696	-4.43791	 2.29188	-2.57687
   161	 39.5703	  26.531	 10.1085	-1.37836	0.341406	0.829053
   162	 38.6995	 27.6655	 10.3531	0.991621	-0.474993	 3.14677
   163	 36.4294	 26.9058	 8.28051	-0.42211	-16.7697	 1.12089
   164	 38.2688	 27.5985	 11.3297	-5.96381	-12.6477	-7.28275
   165	 38.8213	 26.2941	 6.90184	 1.73596	 2.14772	 1.29629
   166	  39.569	 25.7936	 10.9151	-3.26974	 12.6815	 5.07557
   167	0.483506	 25.8485	 8.36446	 3.45904	 5.48903	-7.50662
   168	 37.7955	  29.044	 9.12957	-3.65528	-2.12801	  3.0315
   169	  13.486	 34.1607	 33.6479	-0.0476944	 -2.0477	   4.249
   170	 13.8552	   33.25	 32.6107	0.388312	-3.20823	-3.38936
   171	  12.801	  32.318	 32.3833	0.101016	0.541854	-1.71297
   172	 11.7526	 32.3331	 33.2736	-3.12575	-0.989058	  1.3571
   173	 11.7702	 32.8547	 34.5717	-1.63512	 1.01679	-0.719528
   174	 12.8361	 33.7974	 34.7853	-2.16695	-0.276897	 1.12604
   175	  14.738	 32.7424	 32.8914	 3.94548	-2.53067	 9.11461
   176	 12.8133	 34.4176	 35.6602	-0.451816	 -5.3113	-4.30512
   177	 13.2277	 31.2769	 32.2931	 6.32049	-0.777567	 4.18507
   178	 11.6946	 32.0155	 35.2892	-6.30214	-1.43195	-0.112134
   179	 10.7596	 32.4142	 32.8381	-1.41153	-8.17366	 22.4266
   180	 13.3074	 35.1675	 33.1811	-3.25673	 3.53402	-7.43516
   181	 23.3055	 5.57519	 34.6223	 -2.2195	-4.81032	0.917764
   182	 23.5178	 6.84778	 35.2863	-0.0461057	  2.2819	 1.77673
   183	 22.8545	 7.08045	 36.5459	-4.58722	-1.93988	 1.81865
   184	 22.7667	 6.00398	  37.471	0.366643	-1.59146	-0.201514
   185	 22.5715	 4.70617	  36.864	-0.827224	-0.0505118	0.150935
   186	 22.6273	 4.68625	 35.4907	  -3.866	0.257289	0.330788
   187	  24.463	 7.28714	 35.1508	-4.29653	-4.76008	 6.74101
   188	 22.0462	 3.93578	 34.9859	  5.0727	-8.17881	-14.3827
   189	 22.0522	 7.80572	 36.5135	0.0535897	-7.03167	 5.62384
   190	 21.8284	 4.17542	 37.4182	-8.21893	-1.13182	 2.67226
   191	 23.6681	 5.95012	 38.0944	-8.72171	-0.276848	 -1.0056
   192	  24.231	 5.20099	 34.1138	-9.77482	 2.68317	-3.61731
   193	 29.1425	 29.7041	 39.3417	0.382893	0.808943	 5.59407
   194	 27.9315	 29.8619	 38.6738	-2.33117	-2.10354	-0.901989
   195	 27.5547	 31.0628	 38.1216	 3.34025	 2.11459	0.818891
   196	 28.2525	 32.2623	 38.4448	-1.94472	-0.486893	-2.26682
   197	 29.5611	 32.1213	 39.0358	-7.08095	 1.58723	 1.65773
   198	 29.8822	  30.884	 39.7087	-1.84301	-0.261725	-1.11589
   199	 27.1186	 29.1923	 39.0189	 11.6095	 4.81129	-9.11584
   200	 30.9859	 30.7021	 39.7619	 8.83532	 1.74059	 5.21365
   201	 27.2657	 31.0187	 37.1111	 1.09705	 3.15806	 2.36481
   202	 30.3079	 32.5048	 38.3869	  3.0101	 -5.8405	-4.20139
   203	 28.2676	 33.0738	 37.7611	 3.20995	-8.01392	 5.33069
   204	 28.9736	 29.1061	0.281666	 -7.7604	-4.65312	  3.5763
   205	  25.555	  7.8126	0.103215	-2.68773	-1.94243	0.618388
   206	 26.3279	 9.01665	0.347639	-5.69143	 2.12865	 3.28253
   207	 25.6657	 10.2495	 0.16334	-0.94115	-1.18075	0.166073
   208	 24.2506	 10.3213	  39.987	-2.08475	 0.22074	-0.914034
   209	 23.5312	 9.14676	0.384375	0.794312	-2.77425	 2.33676
   210	 24.2029	 7.88968	0.565512	 -2.7735	-0.458748	0.519212
   211	 26.9209	 8.87111	  1.2181	-0.00822397	0.686689	 1.24224
   212	 23.9043	 7.22922	 1.32828	-0.677739	 3.29745	-2.84019
   213	 26.0487	 11.0305	0.850978	-3.94455	-0.299344	-4.74934
   214	 22.4802	 9.09608	 0.21095	 4.84002	 1.17089	-1.00016
   215	 24.0804	 10.6424	 38.9173	 -6.7258	-5.38924	-4.25973
   216	 25.5855	 7.68864	 39.0093	-17.5899	 5.73512	-1.07916
   217	 16.4187	 5.84004	 3.77782	-0.948326	 1.08211	-0.211199
   218	 15.3915	  5.6063	  4.7739	-0.0678168	-1.03391	  1.7166
   219	 14.6965	 6.69616	 5.25212	-3.17196	  2.9791	 3.31106
   220	 15.3753	 7.89737	 5.36972	-3.77287	-1.42945	 3.58818
   221	 16.5895	 8.13969	 4.62468	-1.58972	-1.02244	 2.09828
   222	 17.0341	 7.13898	 3.71391	-0.861101	-0.689296	0.679706
   223	 15.6266	 4.75909	 5.42162	 1.22593	 8.35334	 14.9358
   224	 17.1027	 7.47671	 2.68209	-8.28988	 13.7379	0.698254
   225	 13.6845	 6.80352	   4.951	-5.88571	-0.00200702	0.803993
   226	 17.3516	 8.71793	 5.05979	 1.80228	 9.00483	 1.44591
   227	 15.4452	 8.45337	 6.28709	 4.20244	-10.7627	-1.69631
   228	  17.166	 5.03013	 3.80742	 5.91121	-6.32494	 2.25435
   229	 2.13005	 22.5287	 20.7693	-0.0842187	 1.67663	 4.31715
   230	 1.10131	 21.5433	 20.6353	-3.38147	-0.391467	-0.752131
   231	0.234532	 21.5453	 19.4974	-4.79131	-0.213662	 2.59168
   232	0.414176	 22.4792	 18.4756	-2.30028	-1.14912	-2.55318
   233	 1.35866	  23.546	 18.6676	-1.94886	-2.52762	 2.27857
   234	 2.37059	  23.388	 19.6773	 2.83667	-0.0712964	0.557745
   235	 1.59132	 20.5258	 20.6595	 -3.3258	-4.06865	-6.22443
   236	  3.3538	 23.7092	 19.4601	 1.46119	-0.360872	 2.05922
   237	 39.2038	 21.6284	 19.8688	   7.666	 5.65756	 2.31255
   238	 1.03762	 24.5412	 18.5277	 5.02768	-7.22032	 4.32152
   239	0.680182	 22.0165	 17.5143	 6.54765	 2.12011	  6.2539
   240	 2.37375	 22.7823	 21.7587	-5.94017	 -4.8866	 2.78928
   241	0.791122	  14.593	 31.0621	-0.229171	 -3.0798	 2.16921
   242	0.816903	 13.4814	 31.9445	-0.182229	0.648528	 2.88462
   243	0.846836	 13.6153	 33.3456	-1.95993	-0.789863	 1.65504
   244	0.562167	 14.9311	 33.8753	-3.06032	-3.67868	   2.391
   245	0.791556	 16.0697	 33.0973	0.213646	-1.26851	 3.34065
   246	0.517341	 15.8601	 31.6889	-0.963456	 2.61193	  2.6619
   247	0.339751	 12.5882	 31.5425	 4.49855	-12.2169	-4.88926
   248	 39.4897	 16.1523	 31.3563	 1.27486	 9.15762	 3.27242
   249	   1.709	 13.2107	 33.9079	-2.37149	 9.55481	 5.81725
   250	 1.66737	 16.6531	 33.1607	-2.11839	 4.24559	 4.37313
   251	 39.4921	 14.9974	 34.2342	 1.82138	 5.13582	-1.29014
   252	 1.69087	 14.6604	 30.5092	-0.812121	-6.07982	 5.07427
   253	 22.7596	 14.9038	 12.4701	0.785269	-4.18281	-0.689716
   254	 22.1458	 16.1161	 12.9662	-3.55248	-3.16135	 4.40233
   255	 22.8589	 16.9341	 13.8999	 1.09543	-1.77069	 2.11349
   256	 24.1613	 16.5136	  14.316	-2.10402	-0.997858	-0.872909
   257	 24.6639	 15.1903	 14.0233	0.502627	-0.195662	  2.0652
   258	 23.9142	 14.4419	  13.064	-0.300308	 1.80903	0.355007
   259	 21.1486	 15.9476	 13.4549	 1.88772	-1.50957	-6.40969
   260	 24.6094	 13.7595	 12.5309	 8.85595	-5.99246	 1.32761
   261	 22.2556	 17.2103	 14.7158	-11.6893	-9.92621	-6.43771
   262	 24.7276	 14.6876	 15.0309	-0.438393	 5.48727	 -4.4802
   263	  24.868	 17.3021	 14.2649	-5.44263	-3.32314	-0.12049
   264	 22.7902	 14.9749	 11.4038	 9.47231	 9.13971	 3.80927
   265	  10.314	  11.218	 25.1644	-1.92342	-2.66785	  2.9726
   266	 11.2262	 11.1333	  24.144	 2.32889	-2.61158	-0.409483
   267	 11.0502	 11.9982	 23.0228	0.470313	-2.28587	0.106441
   268	 10.5392	 13.3126	 23.2999	-3.04227	-2.31355	0.856446
   269	 9.72782	 13.5283	 24.4819	 1.85318	0.535636	  1.0432
   270	  9.6087	 12.4299	 25.4108	0.0131172	 1.22858	  2.0908
   271	 12.2803	 11.0294	 24.4637	-4.63426	0.155816	  -5.353
   272	 9.49484	 12.7296	 26.4912	 10.0309	 2.18566	 6.41367
   273	 10.7463	 11.5847	 22.0678	 2.00128	 4.15053	-2.17599
   274	 8.72964	 13.9481	 24.1596	-8.63273	0.417789	 9.80044
   275	 11.3468	 14.0076	  23.196	-0.762092	 6.89221	 2.92792
   276	 9.95776	 10.2933	 25.6138	-3.28255	-3.78131	 4.95316
   277	 1.56693	 36.2508	 18.6269	 -2.1999	-0.926396	  1.0434
   278	 1.06142	 35.0056	 18.1086	-0.759496	0.255196	0.0888977
   279	0.806455	 33.9369	 19.0008	-3.94204	-2.68864	 0.37117
   280	 1.21396	 34.0324	 20.3369	-0.181985	 2.04599	 -2.3897
   281	 1.67359	 35.3015	 20.8347	-1.46966	-1.29497	-3.33828
   282	 1.76015	 36.4535	 19.9742	-4.58238	-2.52684	 2.79254
   283	  1.6108	 34.7721	 17.1738	 3.23844	-6.13253	 3.43215
   284	 1.33343	 37.3435	 20.3724	-9.30788	-13.5054	-8.42659
   285	 39.8884	 33.4759	 18.7744	-7.60263	 1.29795	-2.36539
   286	 1.44449	  35.585	 21.8241	0.187616	-0.851244	-4.96892
   287	 1.90675	   33.24	 20.7154	-4.56435	-0.553616	 13.8743
   288	 2.25877	 36.7285	 17.9762	0.319093	 17.7096	 12.0725
   289	 20.0693	 1.78336	   28.77	-0.93325	-2.55488	0.446475
   290	 20.6604	  2.0085	  27.469	-1.82987	-1.27965	-0.138962
   291	 21.2153	 3.27448	 27.1202	-3.38722	 1.83305	 2.60051
   292	 20.7584	 4.36127	 27.8833	-2.45325	-0.899007	-2.20889
   293	 20.1395	 4.20479	 29.1602	 2.22628	-0.83947	 3.14846
   294	  20.039	 2.88026	 29.6973	-2.49718	0.598806	 0.89426
   295	 20.2352	 1.41748	 26.6677	 1.32698	-7.45474	-4.10663
   296	 20.7388	 2.67303	 30.5304	 2.13806	 2.66567	0.0194707
   297	 22.2404	 3.27717	 26.8929	-9.25543	 4.89043	-8.06139
   298	 19.3155	 4.86163	  29.427	-1.10111	-6.70819	-4.08716
   299	 20.3571	  5.1933	 27.2345	-2.52343	 0.25163	-0.887401
   300	 20.6163	0.951784	 29.2902	-7.58648	-0.693263	 3.94232
   301	 19.2532	  34.663	 7.96439	-3.15566	 1.13549	-1.08705
   302	 18.9235	 33.8227	  9.0953	-1.13379	-0.349512	-1.46509
   303	 17.5611	 33.7503	 9.56637	0.298167	-3.36168	0.414768
   304	 16.5772	 34.5747	 8.93787	-5.34153	-2.65306	 2.11145
   305	  16.909	 35.3879	 7.80035	-1.13551	-2.78766	-0.106258
   306	 18.2567	 35.4397	 7.35467	-0.155765	-1.94074	 2.11079
   307	 19.2911	 32.8314	 8.92845	-0.998858	 18.5903	 0.35638
   308	 18.2678	 35.3598	 6.27984	 6.72163	 7.87865	 4.48301
   309	 17.3202	 32.6801	 9.63789	 3.94525	0.0231653	0.800678
   310	 16.1201	 35.3114	 7.06607	-6.99711	 6.39963	 2.29133
   311	 16.0553	 35.1276	 9.72886	-1.75123	0.500713	-1.83503
   312	 20.1758	 35.2208	 8.12328	-6.92922	-3.13044	-0.559751
   313	 31.1576	 20.0703	 24.1387	-2.82753	 3.35167	-1.18304
   314	 30.3871	 18.9298	 23.8354	-2.07745	-0.628693	 2.34996
   315	 30.7264	 18.0159	 22.7965	-1.80584	 -3.6145	0.00217654
   316	 31.8033	  18.317	 22.0376	-0.584913	-0.538917	0.435533
   317	 32.6597	 19.4605	 22.2421	-0.397889	-2.34209	 1.51993
   318	 32.0772	 20.4661	 23.0946	-2.42558	-1.26739	-1.70468
   319	 29.2977	 19.0596	 23.8652	  2.9285	-5.36867	-3.28776
   320	 31.5463	 21.1745	 22.3992	-3.03708	 3.44517	0.811936
   321	 30.7549	 17.0095	 23.1933	 2.81423	-16.6615	 2.42747
   322	 33.6733	 19.2391	 22.4981	 3.93592	 3.05047	 3.45123
   323	 31.8733	 17.9084	 20.9888	-2.63796	 10.4768	-4.23114
   324	 31.6486	 19.9932	 25.1375	 5.55341	-1.93426	 -2.2523
   325	 2.69347	 3.99646	 1.79066	-2.13273	 1.09065	 2.67148
   326	 4.07077	 4.32433	 1.47983	-0.278832	 -1.7914	 2.40958
   327	 4.88282	  3.1755	 1.39507	-4.16057	0.992024	0.131294
   328	 4.38723	 1.91972	 0.86219	 -3.5075	0.991899	0.106334
   329	 2.96045	 1.79117	0.837497	  -1.929	-0.00138308	 2.41701
   330	 2.10837	 2.79418	  1.3296	0.020357	-0.310967	 1.72316
   331	 4.02974	 5.00217	0.633818	-3.99237	 2.25722	  -6.974
   332	 1.31608	 3.00009	0.641468	 3.82776	 6.65064	-5.09153
   333	 5.71209	 3.04466	 2.06189	-5.45017	-6.58559	 6.69185
   334	 2.66925	0.831015	  1.2269	-0.479831	-0.978038	-3.07818
   335	 4.90677	  1.5739	 39.9282	 1.61231	-15.2337	-10.3786
   336	 2.43667	 4.40514	 2.73659	-6.76176	-4.28022	-7.19542
   337	 5.37508	  7.3452	 4.60157	-2.85943	-1.25549	0.820547
   338	 5.64072	 8.58975	 4.15442	 1.94795	-0.965013	 3.34832
   339	 5.50406	 9.72146	 4.99203	-3.34914	-1.47017	-1.36391
   340	 5.69982	  9.5001	 6.37456	 -3.3516	-0.419792	-0.336069
   341	 5.70601	 8.16022	  6.9266	  -2.816	-2.94804	  1.8177
   342	 5.38892	 7.11259	 6.00461	0.969262	0.708091	-0.571829
   343	 6.51709	  8.6285	 3.51573	 2.65266	 14.0233	0.547866
   344	 5.97777	 6.20836	 6.31827	-6.56431	-8.86091	 -7.4833
   345	 4.62966	 10.3462	 4.80317	-5.59496	 -4.7037	-13.5938
   346	 6.51046	 7.96119	 7.59808	0.526826	 6.03102	 3.35857
   347	 5.37974	 10.2834	 7.08074	-1.34463	-2.35027	-8.50076
   348	 4.46281	 6.83608	 4.20497	 6.97803	 6.52878	 2.43044
   349	 33.6127	 23.6584	  27.018	-1.74577	0.574651	0.451922
   350	 34.1934	   23.47	 28.3002	   1.306	-2.61112	 2.57332
   351	 35.3686	 22.6262	 28.3617	 1.70484	0.164404	0.660893
   352	 35.6483	 21.7222	 27.3016	 -1.2296	0.726172	 2.85787
   353	 34.9042	 21.8191	 26.1303	 1.40488	-0.69623	 1.41349
   354	 34.0777	 22.9046	 25.8869	-5.41728	 2.73041	 1.66653
   355	  33.459	 23.1029	 29.0081	-6.35858	-6.32008	 -9.1651
   356	 34.4177	 23.5582	 25.1003	-11.3515	-3.14032	 5.27444
   357	 36.2202	 23.0476	 28.8484	-4.55222	 14.8317	-8.95652
   358	 34.8829	 20.9592	 25.4387	-0.407811	-11.5001	 13.3023
   359	 35.7612	  20.749	  27.691	-13.4971	 4.27446	 12.6404
   360	  33.146	   24.59	 26.7635	 5.79389	-3.49454	 2.63578
   361	  12.934	  15.152	 1.97983	0.087149	-2.16236	 2.30283
   362	 13.1389	   14.41	0.792263	-0.643674	-2.00673	 3.77817
   363	 12.6408	 13.0652	 0.75342	-1.42742	-0.951036	 3.32354
   364	 12.1056	 12.4536	 1.95007	-3.95215	 3.64335	 2.86989
   365	 12.3439	 13.1273	 3.15181	-0.00615967	 1.83231	 0.32767
   366	 12.7179	 14.4618	 3.21891	   1.383	 2.08708	 2.08906
   367	 14.0356	  14.587	 0.19458	 1.07563	-12.0915	 5.30745
   368	 13.5215	 14.7916	 3.89608	 5.16756	-9.93573	-7.18263
   369	 13.3011	 12.3676	0.288152	-1.97785	0.398331	 1.61358
   370	 12.4838	 12.5779	 4.08261	 3.00751	-6.04931	 9.99292
   371	 11.1832	 11.9807	 1.76509	-8.89821	-3.79455	 6.50125
   372	 12.3406	 16.0217	 1.82236	 2.96309	-8.30021	-2.33636
   373	  37.371	 32.1213	 3.64124	-2.43115	 -1.3592	-1.81461
   374	 36.7169	 30.9051	 3.40853	-1.52539	-2.99599	0.905694
   375	 35.6965	 30.9786	 2.45927	-4.81231	-1.28877	-0.0729089
   376	 35.8678	 31.7213	  1.2497	0.477528	-2.93158	0.263646
   377	 36.5681	 32.9063	 1.42155	 2.42076	-0.190015	 1.41326
   378	 37.1985	 33.1228	  2.6908	0.0577075	 1.93614	-1.07897
   379	 37.2911	 29.9605	 3.38958	-6.97357	 3.93111	 2.09955
   380	 36.7984	 34.0853	 3.09673	-11.0784	-8.86083	 3.02962
   381	 34.6645	  30.911	 2.75911	 1.81592	  9.6996	-2.60807
   382	 37.2978	 33.1836	0.671745	 6.52352	-5.87725	 2.62559
   383	 34.8877	   31.83	0.745635	-0.685035	-5.15911	 5.08993
   384	 38.0518	 32.2314	 4.45197	 4.73164	-1.59528	 1.18726
   385	  26.808	 32.4126	 16.9853	-2.26907	-2.82336	0.736096
   386	 25.3972	 32.2623	 16.7721	  1.3031	-2.62206	0.390581
   387	 24.8397	 30.9564	 17.0588	-0.858408	-2.49897	0.583242
   388	 25.6893	 29.8648	 17.3017	-1.49065	-0.0716977	 0.21713
   389	 27.1016	 30.0499	 17.2637	0.979403	 1.80838	 4.74171
   390	 27.6454	 31.3254	 17.3216	-3.14215	-3.37914	 2.53597
   391	 25.0206	 32.6143	 15.8292	 1.10802	 8.67666	-1.61734
   392	 28.2605	 31.5051	 18.2451	 3.70435	 2.52837	-4.99697
   393	 23.8522	 30.7694	 16.5797	 9.65493	 2.52247	 8.71359
   394	 27.5119	 29.4645	 16.4804	-4.05797	 1.75933	-5.18087
   395	 25.3929	 29.3955	 18.2815	  4.8414	-13.0782	-6.29696
   396	 27.1139	 33.2858	 17.5606	 6.27417	 5.14548	 1.26948
   397	 9.46087	 37.1386	 26.1187	-1.86937	-1.78288	0.153268
   398	  9.2257	 36.6618	 27.4619	 1.70345	-2.10985	 2.34007
   399	 10.1089	 37.1024	 28.4939	-4.66332	-0.36562	 2.75475
   400	 10.9933	 38.2202	 28.2207	  1.9556	0.108094	0.618017
   401	 11.2195	 38.6157	 26.8651	-1.79393	-0.838856	  3.5048
   402	 10.2029	 38.3445	 25.9212	-2.29867	 -0.9204	0.306615
   403	  8.1941	 36.6734	 27.6796	-15.8856	 1.25921	-3.84828
   404	 9.62138	 39.1829	   25.53	-0.58519	 5.90146	0.0120757
   405	 10.6068	 36.2152	 28.8937	 1.80761	-8.01827	-1.71694
   406	 12.2395	 38.4912	 26.5847	0.824956	 5.19073	 7.33221
   407	 10.8745	 39.0345	 28.9318	 8.31034	-5.49901	 1.98703
   408	 9.88568	 36.2979	 25.5772	 9.03067	-1.37618	 -2.2528
   409	 25.2903	  37.449	 12.0283	-2.52167	  1.9657	 -2.2412
   410	 25.3695	 36.6195	 10.9024	 1.32464	-0.788305	 2.11314
   411	 26.5663	 36.7026	 10.1415	-4.13982	-0.36625	 1.26462
   412	  27.503	 37.7299	 10.3108	-2.62182	-0.627576	-2.84154
   413	 27.2966	 38.6546	 11.2714	-0.466815	-0.645507	-1.98961
   414	 26.2055	 38.5616	 12.2107	-1.76969	0.228223	-2.17205
   415	 24.5186	 36.6064	 10.2424	-9.17128	-11.8766	0.766746
   416	 25.5313	 39.4497	 12.2482	 2.67883	-4.19186	 8.03327
   417	 26.9621	 35.6873	 9.93766	 -5.1813	-19.4957	-0.511455
   418	 27.9304	 39.5503	 11.4079	 3.49034	-5.03196	 6.29839
   419	 28.4909	 37.3715	 10.0237	-0.403214	 8.45898	 1.39462
   420	 25.2887	 36.8196	 12.9247	-7.08059	-3.85572	-0.432176
   421	 9.72658	  29.456	 11.1119	-2.12576	-2.49779	 3.34545
   422	 9.11603	  29.333	 12.3823	 2.01866	0.898583	-0.756123
   423	 10.0067	 28.9553	 13.4178	-2.11854	-1.53741	  2.4969
   424	   11.38	 29.1063	 13.3604	0.436909	 2.20803	 1.22928
   425	 11.8909	 29.7287	 12.1856	-0.676839	-4.82703	 -1.3418
   426	 11.0643	  29.978	 11.0297	-3.07102	-4.09223	  3.8331
   427	 8.37861	 30.0777	 12.5365	 13.4599	 7.33528	-6.60827
   428	 11.0339	 31.0644	 10.8798	-2.82903	0.811632	-3.34683
   429	 9.57997	 28.6264	 14.3524	 0.18278	 5.76242	 9.12394
   430	 12.9098	  29.391	 11.9595	-0.844605	0.501805	 7.14736
   431	 12.0503	  28.237	  13.563	-7.12903	-9.42497	-6.66463
   432	 9.52886	  28.614	 10.4453	-6.93397	 5.65373	 5.79284
   433	 30.9733	 28.3364	 12.2364	 1.24502	-2.26497	 2.43268
   434	 30.7108	 27.8205	  10.937	-2.40615	-0.640413	 3.66402
   435	 29.7991	 26.7536	 10.7427	-1.06655	-0.887514	  1.0978
   436	 29.7863	 25.8356	 11.7658	-0.722592	-0.540533	-0.213984
   437	 29.9304	 26.2517	 13.1315	 2.10928	-1.43567	 2.51586
   438	 30.6629	 27.4407	 13.3165	 1.39129	 2.22479	 1.75275
   439	 31.6389	 27.6023	 10.3541	 -6.9878	-10.8474	-5.37503
   440	 31.4521	  27.272	 14.0526	-2.69047	-11.1838	0.706782
   441	 28.7974	 27.1634	 10.4926	 6.63769	 10.0173	-1.34359
   442	 28.9565	 26.3938	 13.6294	  1.5157	0.725445	-6.74204
   443	 29.9129	 24.8198	 11.5302	-9.21095	-0.837396	-0.294447
   444	 30.4353	 29.2938	 12.4279	-4.86842	 3.68933	 6.21394
   445	 15.9952	 18.4135	 24.8974	0.675633	-1.05246	-0.635989
   446	  16.181	 19.7551	 24.4309	-3.23822	-3.68414	 2.65498
   447	 15.0186	 20.5496	 24.2155	-1.93203	 0.25452	 -3.5566
   448	 13.7401	 20.0735	 24.5243	0.243652	-0.786708	 1.03947
   449	 13.5955	 18.8336	 25.0458	  -3.219	-1.74766	 2.40696
   450	 14.6916	  17.945	 25.3133	-0.295617	-1.62808	  4.0496
   451	 16.7725	 20.2878	 25.1928	 2.27045	 1.23942	-6.74793
   452	 14.7903	 17.7276	 26.3887	0.249592	-11.0354	 5.07239
   453	 15.2087	 21.6607	 24.3041	-10.3145	 -11.045	-5.85482
   454	 12.5985	 18.3262	 25.1109	 1.97004	-7.50255	 3.03987
   455	 13.0402	 20.2453	 23.6633	-3.28015	-12.9458	 3.31847
   456	 16.4954	 17.7773	 24.1561	-4.33217	 3.98286	-19.5133
   457	 16.2058	 14.6479	 11.6467	 2.34154	-2.81283	0.677879
   458	 17.1221	 15.5742	 11.0931	0.584013	0.543992	-2.27766
   459	 17.0019	 15.8551	 9.67841	0.401326	-1.96536	 -1.1071
   460	 15.9606	 15.3163	 8.87812	-0.527725	-2.39969	0.283033
   461	 15.1545	  14.304	 9.48311	0.288106	-0.711915	 -2.7482
   462	 15.2218	  14.038	 10.9084	-3.06732	-3.33305	 3.00882
   463	 18.1527	 15.5695	 11.4811	-5.20359	 8.61127	 4.46936
   464	 14.3088	 13.9115	 11.4326	 10.1384	-10.0253	 1.34075
   465	 17.9758	 15.9318	 9.21723	-3.91846	-15.0692	 1.53477
   466	 15.0739	 13.4234	 8.89186	-1.92308	 4.98883	-1.56577
   467	 15.3938	 16.1918	 8.44142	-6.31406	 4.59003	 5.18938
   468	 15.9114	 14.9185	  12.697	 5.75574	 5.15605	 3.81684
   469	 20.1072	 20.3038	0.853268	0.416139	 1.79328	  0.9537
   470	  21.346	 20.4865	 1.52119	-3.71806	-2.11455	 1.40047
   471	 21.6077	 21.6537	 2.34152	 0.45113	0.323869	-0.679731
   472	 20.4792	 22.5409	 2.54803	-2.00062	 2.89807	0.777458
   473	  19.235	 22.3166	 1.88098	-1.86402	-0.0854914	 3.48328
   474	 18.9661	 21.1579	 1.09075	-3.96483	 2.07763	 2.83525
   475	 21.7002	 19.5416	 2.01128	-2.65158	0.392604	-7.05242
   476	 18.1574	 20.5408	  1.4098	 5.19723	-0.742538	-5.91979
   477	  22.501	 22.2289	 2.04227	-11.5235	 3.79609	 4.78777
   478	 18.3154	 22.6416	 2.35451	  10.032	-10.4304	-4.26964
   479	 20.7939	 23.6107	 2.63189	-3.54321	-2.26207	-2.66296
   480	 20.2644	 20.2381	 39.7904	 3.44017	-3.17544	 11.6599
   481	 32.6614	 33.6789	  13.078	 -2.5406	 1.49661	-0.34092
   482	  31.794	 34.7656	 12.7275	-0.793512	-2.17277	-2.82132
   483	 31.3419	  34.827	 11.4164	-0.503484	-3.65709	 2.25776
   484	 31.3686	 33.7001	 10.5601	-1.80009	 0.50272	-0.920243
   485	 32.0702	 32.5054	   10.96	-2.09079	 -2.3163	0.894909
   486	 32.7214	  32.521	 12.2544	-5.70886	-0.123547	-0.914452